 Entering Gaussian System, Link 0=g09
 Input=CO2.gjf
 Output=CO2.log
 Initial command:
 /share/apps/g09/l1.exe "/tmp/Gau-16047.inp" -scrdir="/tmp/"
 Entering Link 1 = /share/apps/g09/l1.exe PID=     16048.
  
 Copyright (c) 1988,1990,1992,1993,1995,1998,2003,2009,2013,
            Gaussian, Inc.  All Rights Reserved.
  
 This is part of the Gaussian(R) 09 program.  It is based on
 the Gaussian(R) 03 system (copyright 2003, Gaussian, Inc.),
 the Gaussian(R) 98 system (copyright 1998, Gaussian, Inc.),
 the Gaussian(R) 94 system (copyright 1995, Gaussian, Inc.),
 the Gaussian 92(TM) system (copyright 1992, Gaussian, Inc.),
 the Gaussian 90(TM) system (copyright 1990, Gaussian, Inc.),
 the Gaussian 88(TM) system (copyright 1988, Gaussian, Inc.),
 the Gaussian 86(TM) system (copyright 1986, Carnegie Mellon
 University), and the Gaussian 82(TM) system (copyright 1983,
 Carnegie Mellon University). Gaussian is a federally registered
 trademark of Gaussian, Inc.
  
 This software contains proprietary and confidential information,
 including trade secrets, belonging to Gaussian, Inc.
  
 This software is provided under written license and may be
 used, copied, transmitted, or stored only in accord with that
 written license.
  
 The following legend is applicable only to US Government
 contracts under FAR:
  
                    RESTRICTED RIGHTS LEGEND
  
 Use, reproduction and disclosure by the US Government is
 subject to restrictions as set forth in subparagraphs (a)
 and (c) of the Commercial Computer Software - Restricted
 Rights clause in FAR 52.227-19.
  
 Gaussian, Inc.
 340 Quinnipiac St., Bldg. 40, Wallingford CT 06492
  
  
 ---------------------------------------------------------------
 Warning -- This program may not be used in any manner that
 competes with the business of Gaussian, Inc. or will provide
 assistance to any competitor of Gaussian, Inc.  The licensee
 of this program is prohibited from giving any competitor of
 Gaussian, Inc. access to this program.  By using this program,
 the user acknowledges that Gaussian, Inc. is engaged in the
 business of creating and licensing software in the field of
 computational chemistry and represents and warrants to the
 licensee that it is not a competitor of Gaussian, Inc. and that
 it will not use this program in any manner prohibited above.
 ---------------------------------------------------------------
  

 Cite this work as:
 Gaussian 09, Revision D.01,
 M. J. Frisch, G. W. Trucks, H. B. Schlegel, G. E. Scuseria, 
 M. A. Robb, J. R. Cheeseman, G. Scalmani, V. Barone, B. Mennucci, 
 G. A. Petersson, H. Nakatsuji, M. Caricato, X. Li, H. P. Hratchian, 
 A. F. Izmaylov, J. Bloino, G. Zheng, J. L. Sonnenberg, M. Hada, 
 M. Ehara, K. Toyota, R. Fukuda, J. Hasegawa, M. Ishida, T. Nakajima, 
 Y. Honda, O. Kitao, H. Nakai, T. Vreven, J. A. Montgomery, Jr., 
 J. E. Peralta, F. Ogliaro, M. Bearpark, J. J. Heyd, E. Brothers, 
 K. N. Kudin, V. N. Staroverov, T. Keith, R. Kobayashi, J. Normand, 
 K. Raghavachari, A. Rendell, J. C. Burant, S. S. Iyengar, J. Tomasi, 
 M. Cossi, N. Rega, J. M. Millam, M. Klene, J. E. Knox, J. B. Cross, 
 V. Bakken, C. Adamo, J. Jaramillo, R. Gomperts, R. E. Stratmann, 
 O. Yazyev, A. J. Austin, R. Cammi, C. Pomelli, J. W. Ochterski, 
 R. L. Martin, K. Morokuma, V. G. Zakrzewski, G. A. Voth, 
 P. Salvador, J. J. Dannenberg, S. Dapprich, A. D. Daniels, 
 O. Farkas, J. B. Foresman, J. V. Ortiz, J. Cioslowski, 
 and D. J. Fox, Gaussian, Inc., Wallingford CT, 2013.
 
 ******************************************
 Gaussian 09:  AS64L-G09RevD.01 24-Apr-2013
                 8-Feb-2018 
 ******************************************
 ------------------------------------------------------------
 # opt(Cartesian) freq b3lyp/6-31(d) Integral(Grid=UltraFine)
 ------------------------------------------------------------
 1/10=7,14=-1,18=10,26=4,38=1/1,3;
 2/12=2,17=6,18=5,29=2,40=1/2;
 3/5=1,6=6,7=1,11=2,16=1,25=1,30=1,71=1,74=-5,75=-5/1,2,3;
 4//1;
 5/5=2,38=5/2;
 6/7=2,8=2,9=2,10=2,28=1/1;
 7/7=1,29=1/1,2,3,16;
 1/10=7,14=-1,18=10,26=4/3(2);
 2/29=1/2;
 99/12=1/99;
 2/29=1/2;
 3/5=1,6=6,7=1,11=2,16=1,25=1,30=1,71=1,74=-5,75=-5/1,2,3;
 4/5=5,16=3,69=1/1;
 5/5=2,38=5/2;
 7/7=1/1,2,3,16;
 1/14=-1,18=10,26=4/3(-5);
 2/29=1/2;
 6/7=2,8=2,9=2,10=2,19=2,28=1/1;
 99/9=1,12=1/99;
 -----
 Title
 -----
 Symbolic Z-matrix:
 Charge =  0 Multiplicity = 1
 C                     0.08231  -2.26777  -1.21859 
 O                     1.20938  -2.57745  -1.45973 
 O                    -0.38186  -1.8375   -2.23126 
 

 GradGradGradGradGradGradGradGradGradGradGradGradGradGradGradGradGradGrad
 Berny optimization.
 Initialization pass.
 No Z-matrix variables, so optimization will use Cartesian coordinates.
 Trust Radius=3.00D-01 FncErr=1.00D-07 GrdErr=1.00D-06
 Number of steps in this run=     20 maximum allowed number of steps=    100.
 GradGradGradGradGradGradGradGradGradGradGradGradGradGradGradGradGradGrad

 ---------------------------------------------------------------------------------------------------
                            Z-MATRIX (ANGSTROMS AND DEGREES)
   CD    Cent   Atom    N1       Length/X        N2       Alpha/Y        N3        Beta/Z          J
 ---------------------------------------------------------------------------------------------------
      1      1  C        0   0.082310         -2.267770         -1.218590
      2      2  O        0   1.209380         -2.577450         -1.459730
      3      3  O        0  -0.381860         -1.837500         -2.231260
 ---------------------------------------------------------------------------------------------------
                         Z-Matrix orientation:                         
 ---------------------------------------------------------------------
 Center     Atomic      Atomic             Coordinates (Angstroms)
 Number     Number       Type             X           Y           Z
 ---------------------------------------------------------------------
      1          6           0        0.082310   -2.267770   -1.218590
      2          8           0        1.209380   -2.577450   -1.459730
      3          8           0       -0.381860   -1.837500   -2.231260
 ---------------------------------------------------------------------
                    Distance matrix (angstroms):
                    1          2          3
     1  C    0.000000
     2  O    1.193456   0.000000
     3  O    1.194189   1.916984   0.000000
 Stoichiometry    CO2
 Framework group  CS[SG(CO2)]
 Deg. of freedom     3
 Full point group                 CS      NOp   2
 Largest Abelian subgroup         CS      NOp   2
 Largest concise Abelian subgroup C1      NOp   1
                         Standard orientation:                         
 ---------------------------------------------------------------------
 Center     Atomic      Atomic             Coordinates (Angstroms)
 Number     Number       Type             X           Y           Z
 ---------------------------------------------------------------------
      1          6           0        0.000000    0.517594    0.000000
      2          8           0        0.958492   -0.193483    0.000000
      3          8           0       -0.958492   -0.194712    0.000000
 ---------------------------------------------------------------------
 Rotational constants (GHZ):    114.3386955     17.1960249     14.9479244
 Standard basis: 6-31G(d) (6D, 7F)
 There are    33 symmetry adapted cartesian basis functions of A'  symmetry.
 There are    12 symmetry adapted cartesian basis functions of A"  symmetry.
 There are    33 symmetry adapted basis functions of A'  symmetry.
 There are    12 symmetry adapted basis functions of A"  symmetry.
    45 basis functions,    84 primitive gaussians,    45 cartesian basis functions
    11 alpha electrons       11 beta electrons
       nuclear repulsion energy        60.2202370634 Hartrees.
 NAtoms=    3 NActive=    3 NUniq=    3 SFac= 1.00D+00 NAtFMM=   60 NAOKFM=F Big=F
 Integral buffers will be    131072 words long.
 Raffenetti 2 integral format.
 Two-electron integral symmetry is turned on.
 One-electron integrals computed using PRISM.
 NBasis=    45 RedAO= T EigKep=  8.14D-03  NBF=    33    12
 NBsUse=    45 1.00D-06 EigRej= -1.00D+00 NBFU=    33    12
 ExpMin= 1.69D-01 ExpMax= 5.48D+03 ExpMxC= 8.25D+02 IAcc=3 IRadAn=         5 AccDes= 0.00D+00
 Harris functional with IExCor=  402 and IRadAn=       5 diagonalized for initial guess.
 HarFok:  IExCor=  402 AccDes= 0.00D+00 IRadAn=         5 IDoV= 1 UseB2=F ITyADJ=14
 ICtDFT=  3500011 ScaDFX=  1.000000  1.000000  1.000000  1.000000
 FoFCou: FMM=F IPFlag=           0 FMFlag=      100000 FMFlg1=           0
         NFxFlg=           0 DoJE=T BraDBF=F KetDBF=T FulRan=T
         wScrn=  0.000000 ICntrl=     500 IOpCl=  0 I1Cent=   200000004 NGrid=           0
         NMat0=    1 NMatS0=      1 NMatT0=    0 NMatD0=    1 NMtDS0=    0 NMtDT0=    0
 Petite list used in FoFCou.
 Initial guess orbital symmetries:
       Occupied  (A') (A') (A') (A') (A') (A') (A') (A") (A') (A")
                 (A')
       Virtual   (A') (A") (A') (A') (A") (A') (A') (A') (A') (A')
                 (A') (A") (A") (A') (A') (A') (A") (A") (A') (A')
                 (A') (A") (A") (A') (A') (A") (A') (A") (A') (A')
                 (A') (A') (A') (A')
 The electronic state of the initial guess is 1-A'.
 Keep R1 ints in memory in symmetry-blocked form, NReq=1431183.
 Requested convergence on RMS density matrix=1.00D-08 within 128 cycles.
 Requested convergence on MAX density matrix=1.00D-06.
 Requested convergence on             energy=1.00D-06.
 No special actions if energy rises.
 Integral accuracy reduced to 1.0D-05 until final iterations.
 Initial convergence to 1.0D-05 achieved.  Increase integral accuracy.
 SCF Done:  E(RB3LYP) =  -188.390025270     A.U. after   15 cycles
            NFock= 15  Conv=0.50D-08     -V/T= 2.0061

 **********************************************************************

            Population analysis using the SCF density.

 **********************************************************************

 Orbital symmetries:
       Occupied  (A') (A') (A') (A') (A') (A') (A') (A") (A') (A")
                 (A')
       Virtual   (A') (A") (A') (A') (A") (A') (A') (A') (A') (A')
                 (A') (A") (A") (A') (A') (A') (A") (A") (A') (A')
                 (A') (A") (A") (A') (A') (A") (A') (A") (A') (A')
                 (A') (A') (A') (A')
 The electronic state is 1-A'.
 Alpha  occ. eigenvalues --  -19.20959 -19.20935 -10.38333  -1.18427  -1.03249
 Alpha  occ. eigenvalues --   -0.56199  -0.50403  -0.50318  -0.49083  -0.33286
 Alpha  occ. eigenvalues --   -0.28660
 Alpha virt. eigenvalues --   -0.19614  -0.00392   0.25056   0.29384   0.46879
 Alpha virt. eigenvalues --    0.48024   0.59774   0.66656   0.81098   0.83486
 Alpha virt. eigenvalues --    0.90247   0.92396   0.93486   1.05085   1.22079
 Alpha virt. eigenvalues --    1.37265   1.40542   1.42463   1.48395   1.77342
 Alpha virt. eigenvalues --    1.77505   1.80150   1.86261   2.13482   2.30043
 Alpha virt. eigenvalues --    2.48144   2.51625   2.58957   2.71647   2.88388
 Alpha virt. eigenvalues --    3.00140   3.70708   3.70970   3.94223
          Condensed to atoms (all electrons):
               1          2          3
     1  C    4.447110   0.519727   0.519068
     2  O    0.519727   7.994309  -0.257467
     3  O    0.519068  -0.257467   7.995925
 Mulliken charges:
               1
     1  C    0.514094
     2  O   -0.256568
     3  O   -0.257526
 Sum of Mulliken charges =   0.00000
 Mulliken charges with hydrogens summed into heavy atoms:
               1
     1  C    0.514094
     2  O   -0.256568
     3  O   -0.257526
 Electronic spatial extent (au):  <R**2>=             95.0682
 Charge=              0.0000 electrons
 Dipole moment (field-independent basis, Debye):
    X=              0.0036    Y=              1.6216    Z=              0.0000  Tot=              1.6216
 Quadrupole moment (field-independent basis, Debye-Ang):
   XX=            -18.7741   YY=            -13.2138   ZZ=            -14.6622
   XY=             -0.0017   XZ=              0.0000   YZ=              0.0000
 Traceless Quadrupole moment (field-independent basis, Debye-Ang):
   XX=             -3.2241   YY=              2.3363   ZZ=              0.8878
   XY=             -0.0017   XZ=              0.0000   YZ=              0.0000
 Octapole moment (field-independent basis, Debye-Ang**2):
  XXX=              0.0093  YYY=             -0.7676  ZZZ=              0.0000  XYY=              0.0014
  XXY=             -0.4619  XXZ=              0.0000  XZZ=              0.0024  YZZ=             -0.2665
  YYZ=              0.0000  XYZ=              0.0000
 Hexadecapole moment (field-independent basis, Debye-Ang**3):
 XXXX=            -75.6944 YYYY=            -18.7879 ZZZZ=            -10.7135 XXXY=             -0.0198
 XXXZ=              0.0000 YYYX=             -0.0176 YYYZ=              0.0000 ZZZX=              0.0000
 ZZZY=              0.0000 XXYY=            -14.7529 XXZZ=            -13.8629 YYZZ=             -4.9727
 XXYZ=              0.0000 YYXZ=              0.0000 ZZXY=             -0.0065
 N-N= 6.022023706337D+01 E-N=-5.639806329260D+02  KE= 1.872426379795D+02
 Symmetry A'   KE= 1.786425557997D+02
 Symmetry A"   KE= 8.600082179857D+00
 Calling FoFJK, ICntrl=      2127 FMM=F ISym2X=1 I1Cent= 0 IOpClX= 0 NMat=1 NMatS=1 NMatT=0.
 ***** Axes restored to original set *****
 -------------------------------------------------------------------
 Center     Atomic                   Forces (Hartrees/Bohr)
 Number     Number              X              Y              Z
 -------------------------------------------------------------------
      1        6           0.084111108    0.015655801   -0.160391518
      2        8           0.122758909   -0.084395118    0.159836281
      3        8          -0.206870017    0.068739317    0.000555237
 -------------------------------------------------------------------
 Cartesian Forces:  Max     0.206870017 RMS     0.119399307

 GradGradGradGradGradGradGradGradGradGradGradGradGradGradGradGradGradGrad
 Berny optimization.
 Search for a local minimum.
 Step number   1 out of a maximum of   20
 All quantities printed in internal units (Hartrees-Bohrs-Radians)
 Second derivative matrix not updated -- first step.
 The second derivative matrix:
                          X1        Y1        Z1        X2        Y2
           X1           1.24874
           Y1          -0.13005   1.05756
           Z1           0.17342  -0.05235   0.98015
           X2          -0.96037   0.26590   0.19803   1.05911
           Y2           0.25414  -0.07483  -0.03601   0.01416   0.92107
           Z2           0.24123  -0.05039  -0.10997  -0.12430   0.27259
           X3          -0.19479   0.14517  -0.29495  -0.00515   0.01272
           Y3           0.15693  -0.13886   0.31810   0.00096  -0.00237
           Z3          -0.33815   0.33248  -0.80763   0.00277  -0.00684
                          Z2        X3        Y3        Z3
           Z2           0.15078
           X3          -0.04042   0.29353
           Y3           0.00754   0.12313   0.98510
           Z3           0.02173   0.41188  -0.09590   0.84844
 ITU=  0
     Eigenvalues ---    0.16681   1.89969   2.45990
 RFO step:  Lambda=-2.83543279D-01 EMin= 1.66806900D-01
 ClnCor:  largest displacement from symmetrization is 2.47D-16 for atom     1.
 Linear search not attempted -- first point.
 Maximum step size (   0.300) exceeded in Quadratic search.
    -- Step size scaled by   0.378
 ClnCor:  largest displacement from symmetrization is 1.14D-15 for atom     3.
 TrRot= -0.003088 -0.000563  0.005850  0.000170  0.000001 -0.000170
 Variable       Old X    -DE/DX   Delta X   Delta X   Delta X     New X
                                 (Linear)    (Quad)   (Total)
    X1        0.15554   0.08411   0.00000   0.06920   0.06611   0.22165
    Y1       -4.28546   0.01566   0.00000   0.01262   0.01205  -4.27341
    Z1       -2.30280  -0.16039   0.00000  -0.13099  -0.12514  -2.42794
    X2        2.28540   0.12276   0.00000   0.11334   0.11025   2.39565
    Y2       -4.87067  -0.08440   0.00000  -0.07210  -0.07266  -4.94334
    Z2       -2.75849   0.15984   0.00000   0.12618   0.13203  -2.62646
    X3       -0.72161  -0.20687   0.00000  -0.17327  -0.17636  -0.89797
    Y3       -3.47237   0.06874   0.00000   0.06117   0.06061  -3.41176
    Z3       -4.21647   0.00056   0.00000  -0.01275  -0.00689  -4.22336
         Item               Value     Threshold  Converged?
 Maximum Force            0.206870     0.000450     NO 
 RMS     Force            0.119399     0.000300     NO 
 Maximum Displacement     0.176362     0.001800     NO 
 RMS     Displacement     0.099926     0.001200     NO 
 Predicted change in Energy=-9.971783D-02
 GradGradGradGradGradGradGradGradGradGradGradGradGradGradGradGradGradGrad

                          Input orientation:                          
 ---------------------------------------------------------------------
 Center     Atomic      Atomic             Coordinates (Angstroms)
 Number     Number       Type             X           Y           Z
 ---------------------------------------------------------------------
      1          6           0        0.117294   -2.261392   -1.284810
      2          8           0        1.267722   -2.615900   -1.389861
      3          8           0       -0.475187   -1.805428   -2.234908
 ---------------------------------------------------------------------
                    Distance matrix (angstroms):
                    1          2          3
     1  C    0.000000
     2  O    1.208386   0.000000
     3  O    1.208976   2.099691   0.000000
 Stoichiometry    CO2
 Framework group  CS[SG(CO2)]
 Deg. of freedom     3
 Full point group                 CS      NOp   2
 Largest Abelian subgroup         CS      NOp   2
 Largest concise Abelian subgroup C1      NOp   1
                         Standard orientation:                         
 ---------------------------------------------------------------------
 Center     Atomic      Atomic             Coordinates (Angstroms)
 Number     Number       Type             X           Y           Z
 ---------------------------------------------------------------------
      1          6           0        0.000000    0.435596    0.000000
      2          8           0        1.049846   -0.162753    0.000000
      3          8           0       -1.049846   -0.163944    0.000000
 ---------------------------------------------------------------------
 Rotational constants (GHZ):    161.4372632     14.3335680     13.1647098
 Standard basis: 6-31G(d) (6D, 7F)
 There are    33 symmetry adapted cartesian basis functions of A'  symmetry.
 There are    12 symmetry adapted cartesian basis functions of A"  symmetry.
 There are    33 symmetry adapted basis functions of A'  symmetry.
 There are    12 symmetry adapted basis functions of A"  symmetry.
    45 basis functions,    84 primitive gaussians,    45 cartesian basis functions
    11 alpha electrons       11 beta electrons
       nuclear repulsion energy        58.1597981449 Hartrees.
 NAtoms=    3 NActive=    3 NUniq=    3 SFac= 1.00D+00 NAtFMM=   60 NAOKFM=F Big=F
 Integral buffers will be    131072 words long.
 Raffenetti 2 integral format.
 Two-electron integral symmetry is turned on.
 One-electron integrals computed using PRISM.
 NBasis=    45 RedAO= T EigKep=  8.22D-03  NBF=    33    12
 NBsUse=    45 1.00D-06 EigRej= -1.00D+00 NBFU=    33    12
 Initial guess from the checkpoint file:  "/tmp/Gau-16048.chk"
 B after Tr=     0.000000    0.000000    0.000000
         Rot=    1.000000    0.000000    0.000000    0.000033 Ang=   0.00 deg.
 Initial guess orbital symmetries:
       Occupied  (A') (A') (A') (A') (A') (A') (A') (A") (A') (A")
                 (A')
       Virtual   (A') (A') (A') (A') (A') (A') (A') (A') (A') (A')
                 (A') (A') (A') (A') (A') (A') (A') (A') (A') (A')
                 (A') (A') (A') (A') (A") (A") (A") (A") (A") (A")
                 (A") (A") (A") (A")
 ExpMin= 1.69D-01 ExpMax= 5.48D+03 ExpMxC= 8.25D+02 IAcc=2 IRadAn=         4 AccDes= 0.00D+00
 Harris functional with IExCor=  402 and IRadAn=       4 diagonalized for initial guess.
 HarFok:  IExCor=  402 AccDes= 0.00D+00 IRadAn=         4 IDoV= 1 UseB2=F ITyADJ=14
 ICtDFT=  3500011 ScaDFX=  1.000000  1.000000  1.000000  1.000000
 FoFCou: FMM=F IPFlag=           0 FMFlag=      100000 FMFlg1=           0
         NFxFlg=           0 DoJE=T BraDBF=F KetDBF=T FulRan=T
         wScrn=  0.000000 ICntrl=     500 IOpCl=  0 I1Cent=   200000004 NGrid=           0
         NMat0=    1 NMatS0=      1 NMatT0=    0 NMatD0=    1 NMtDS0=    0 NMtDT0=    0
 Petite list used in FoFCou.
 Keep R1 ints in memory in symmetry-blocked form, NReq=1431183.
 Requested convergence on RMS density matrix=1.00D-08 within 128 cycles.
 Requested convergence on MAX density matrix=1.00D-06.
 Requested convergence on             energy=1.00D-06.
 No special actions if energy rises.
 Integral accuracy reduced to 1.0D-05 until final iterations.
 Initial convergence to 1.0D-05 achieved.  Increase integral accuracy.
 SCF Done:  E(RB3LYP) =  -188.472588087     A.U. after   13 cycles
            NFock= 13  Conv=0.14D-08     -V/T= 2.0085
 Calling FoFJK, ICntrl=      2127 FMM=F ISym2X=1 I1Cent= 0 IOpClX= 0 NMat=1 NMatS=1 NMatT=0.
 ***** Axes restored to original set *****
 -------------------------------------------------------------------
 Center     Atomic                   Forces (Hartrees/Bohr)
 Number     Number              X              Y              Z
 -------------------------------------------------------------------
      1        6           0.083659063    0.015513205   -0.159314985
      2        8           0.010074923   -0.031844611    0.104646429
      3        8          -0.093733985    0.016331406    0.054668556
 -------------------------------------------------------------------
 Cartesian Forces:  Max     0.159314985 RMS     0.079392588

 GradGradGradGradGradGradGradGradGradGradGradGradGradGradGradGradGradGrad
 Berny optimization.
 Search for a local minimum.
 Step number   2 out of a maximum of   20
 All quantities printed in internal units (Hartrees-Bohrs-Radians)
 Update second derivatives using D2CorN and points    1    2
 DE= -8.26D-02 DEPred=-9.97D-02 R= 8.28D-01
 TightC=F SS=  1.41D+00  RLast= 3.00D-01 DXNew= 5.0454D-01 8.9934D-01
 Trust test= 8.28D-01 RLast= 3.00D-01 DXMaxT set to 5.05D-01
 The second derivative matrix:
                          X1        Y1        Z1        X2        Y2
           X1           1.23952
           Y1          -0.13175   1.05724
           Z1           0.19096  -0.04911   0.94680
           X2          -0.93220   0.27100   0.14486   1.17869
           Y2           0.24404  -0.07665  -0.01698  -0.05055   0.95442
           Z2           0.24389  -0.04995  -0.11483  -0.03291   0.22925
           X3          -0.21374   0.14177  -0.25931  -0.15291   0.08753
           Y3           0.16873  -0.13673   0.29582   0.06057  -0.03390
           Z3          -0.35834   0.32880  -0.76942  -0.03544   0.01746
                          Z2        X3        Y3        Z3
           Z2           0.19817
           X3          -0.13447   0.46023
           Y3           0.05044   0.05172   1.01450
           Z3          -0.02079   0.47029  -0.11652   0.85275
 ITU=  1  0
 Linear search step of   0.599 exceeds DXMaxT=   0.505 but not scaled.
 Quartic linear search produced a step of  1.99737.
 ClnCor:  largest displacement from symmetrization is 4.71D-07 for atom     1.
 TrRot=  0.000000  0.000000  0.000000  0.000000  0.000000  0.000000
 Variable       Old X    -DE/DX   Delta X   Delta X   Delta X     New X
                                 (Linear)    (Quad)   (Total)
    X1        0.22165   0.08366   0.13205   0.00000   0.13205   0.35370
    Y1       -4.27341   0.01551   0.02407   0.00000   0.02407  -4.24934
    Z1       -2.42794  -0.15931  -0.24995   0.00000  -0.24995  -2.67789
    X2        2.39565   0.01007   0.22021   0.00000   0.22021   2.61586
    Y2       -4.94334  -0.03184  -0.14513   0.00000  -0.14513  -5.08847
    Z2       -2.62646   0.10465   0.26372   0.00000   0.26372  -2.36274
    X3       -0.89797  -0.09373  -0.35226   0.00000  -0.35226  -1.25023
    Y3       -3.41176   0.01633   0.12106   0.00000   0.12106  -3.29071
    Z3       -4.22336   0.05467  -0.01377   0.00000  -0.01377  -4.23714
         Item               Value     Threshold  Converged?
 Maximum Force            0.159315     0.000450     NO 
 RMS     Force            0.079393     0.000300     NO 
 Maximum Displacement     0.352260     0.001800     NO 
 RMS     Displacement     0.199590     0.001200     NO 
 Predicted change in Energy=-2.577463D-02
 GradGradGradGradGradGradGradGradGradGradGradGradGradGradGradGradGradGrad

                          Input orientation:                          
 ---------------------------------------------------------------------
 Center     Atomic      Atomic             Coordinates (Angstroms)
 Number     Number       Type             X           Y           Z
 ---------------------------------------------------------------------
      1          6           0        0.187171   -2.248653   -1.417077
      2          8           0        1.384254   -2.692700   -1.250307
      3          8           0       -0.661595   -1.741367   -2.242196
 ---------------------------------------------------------------------
                    Distance matrix (angstroms):
                    1          2          3
     1  C    0.000000
     2  O    1.287632   0.000000
     3  O    1.287852   2.464625   0.000000
 Stoichiometry    CO2
 Framework group  CS[SG(CO2)]
 Deg. of freedom     3
 Full point group                 CS      NOp   2
 Largest Abelian subgroup         CS      NOp   2
 Largest concise Abelian subgroup C1      NOp   1
                         Standard orientation:                         
 ---------------------------------------------------------------------
 Center     Atomic      Atomic             Coordinates (Angstroms)
 Number     Number       Type             X           Y           Z
 ---------------------------------------------------------------------
      1          6           0        0.000000    0.271816    0.000000
      2          8           0        1.232312   -0.101553    0.000000
      3          8           0       -1.232312   -0.102309    0.000000
 ---------------------------------------------------------------------
 Rotational constants (GHZ):    414.5927979     10.4031224     10.1484730
 Standard basis: 6-31G(d) (6D, 7F)
 There are    33 symmetry adapted cartesian basis functions of A'  symmetry.
 There are    12 symmetry adapted cartesian basis functions of A"  symmetry.
 There are    33 symmetry adapted basis functions of A'  symmetry.
 There are    12 symmetry adapted basis functions of A"  symmetry.
    45 basis functions,    84 primitive gaussians,    45 cartesian basis functions
    11 alpha electrons       11 beta electrons
       nuclear repulsion energy        53.1910533226 Hartrees.
 NAtoms=    3 NActive=    3 NUniq=    3 SFac= 1.00D+00 NAtFMM=   60 NAOKFM=F Big=F
 Integral buffers will be    131072 words long.
 Raffenetti 2 integral format.
 Two-electron integral symmetry is turned on.
 One-electron integrals computed using PRISM.
 NBasis=    45 RedAO= T EigKep=  9.33D-03  NBF=    33    12
 NBsUse=    45 1.00D-06 EigRej= -1.00D+00 NBFU=    33    12
 Initial guess from the checkpoint file:  "/tmp/Gau-16048.chk"
 B after Tr=     0.000000    0.000000    0.000000
         Rot=    1.000000    0.000000    0.000000    0.000124 Ang=   0.01 deg.
 Initial guess orbital symmetries:
       Occupied  (A') (A') (A') (A') (A') (A') (A') (A') (A") (A")
                 (A')
       Virtual   (A') (A') (A') (A') (A') (A') (A') (A') (A') (A')
                 (A') (A') (A') (A') (A') (A') (A') (A') (A') (A')
                 (A') (A') (A') (A') (A") (A") (A") (A") (A") (A")
                 (A") (A") (A") (A")
 ExpMin= 1.69D-01 ExpMax= 5.48D+03 ExpMxC= 8.25D+02 IAcc=2 IRadAn=         4 AccDes= 0.00D+00
 Harris functional with IExCor=  402 and IRadAn=       4 diagonalized for initial guess.
 HarFok:  IExCor=  402 AccDes= 0.00D+00 IRadAn=         4 IDoV= 1 UseB2=F ITyADJ=14
 ICtDFT=  3500011 ScaDFX=  1.000000  1.000000  1.000000  1.000000
 FoFCou: FMM=F IPFlag=           0 FMFlag=      100000 FMFlg1=           0
         NFxFlg=           0 DoJE=T BraDBF=F KetDBF=T FulRan=T
         wScrn=  0.000000 ICntrl=     500 IOpCl=  0 I1Cent=   200000004 NGrid=           0
         NMat0=    1 NMatS0=      1 NMatT0=    0 NMatD0=    1 NMtDS0=    0 NMtDT0=    0
 Petite list used in FoFCou.
 Keep R1 ints in memory in symmetry-blocked form, NReq=1431183.
 Requested convergence on RMS density matrix=1.00D-08 within 128 cycles.
 Requested convergence on MAX density matrix=1.00D-06.
 Requested convergence on             energy=1.00D-06.
 No special actions if energy rises.
 Integral accuracy reduced to 1.0D-05 until final iterations.
 Initial convergence to 1.0D-05 achieved.  Increase integral accuracy.
 SCF Done:  E(RB3LYP) =  -188.515571556     A.U. after   13 cycles
            NFock= 13  Conv=0.74D-08     -V/T= 2.0126
 Calling FoFJK, ICntrl=      2127 FMM=F ISym2X=1 I1Cent= 0 IOpClX= 0 NMat=1 NMatS=1 NMatT=0.
 ***** Axes restored to original set *****
 -------------------------------------------------------------------
 Center     Atomic                   Forces (Hartrees/Bohr)
 Number     Number              X              Y              Z
 -------------------------------------------------------------------
      1        6           0.070375961    0.012826019   -0.133196521
      2        8          -0.147515415    0.045824115    0.012123261
      3        8           0.077139454   -0.058650134    0.121073261
 -------------------------------------------------------------------
 Cartesian Forces:  Max     0.147515415 RMS     0.088766413

 GradGradGradGradGradGradGradGradGradGradGradGradGradGradGradGradGradGrad
 Berny optimization.
 Search for a local minimum.
 Step number   3 out of a maximum of   20
 All quantities printed in internal units (Hartrees-Bohrs-Radians)
 Update second derivatives using D2CorN and points    2    3
 The second derivative matrix:
                          X1        Y1        Z1        X2        Y2
           X1           1.23077
           Y1          -0.13333   1.05696
           Z1           0.20747  -0.04613   0.91566
           X2          -0.94126   0.26937   0.16190   1.17284
           Y2           0.25107  -0.07538  -0.03023  -0.04491   0.94953
           Z2           0.22913  -0.05261  -0.08701  -0.04645   0.24031
           X3          -0.19593   0.14498  -0.29286  -0.13800   0.07486
           Y3           0.16328  -0.13771   0.30609   0.05656  -0.03028
           Z3          -0.36009   0.32848  -0.76610  -0.03894   0.01966
                          Z2        X3        Y3        Z3
           Z2           0.17413
           X3          -0.10617   0.42751
           Y3           0.04204   0.06118   1.01186
           Z3          -0.02457   0.47553  -0.11840   0.85321
 ITU=  0  1  0
     Eigenvalues ---    0.38882   1.92620   2.31385
 RFO step:  Lambda=-2.95895822D-02 EMin= 3.88818540D-01
 ClnCor:  largest displacement from symmetrization is 1.46D-16 for atom     1.
 Quartic linear search produced a step of -0.21117.
 ClnCor:  largest displacement from symmetrization is 1.15D-09 for atom     1.
 TrRot= -0.002399 -0.000442  0.004566  0.000273  0.000002 -0.000273
 Variable       Old X    -DE/DX   Delta X   Delta X   Delta X     New X
                                 (Linear)    (Quad)   (Total)
    X1        0.35370   0.07038  -0.02788   0.05381   0.02353   0.37723
    Y1       -4.24934   0.01283  -0.00508   0.00991   0.00438  -4.24496
    Z1       -2.67789  -0.13320   0.05278  -0.10221  -0.04487  -2.72276
    X2        2.61586  -0.14752  -0.04650  -0.03956  -0.08847   2.52740
    Y2       -5.08847   0.04582   0.03065   0.00328   0.03349  -5.05498
    Z2       -2.36274   0.01212  -0.05569   0.03634  -0.01479  -2.37753
    X3       -1.25023   0.07714   0.07439  -0.00704   0.06494  -1.18530
    Y3       -3.29071  -0.05865  -0.02556  -0.01186  -0.03787  -3.32857
    Z3       -4.23714   0.12107   0.00291   0.05218   0.05966  -4.17748
         Item               Value     Threshold  Converged?
 Maximum Force            0.147515     0.000450     NO 
 RMS     Force            0.088766     0.000300     NO 
 Maximum Displacement     0.088465     0.001800     NO 
 RMS     Displacement     0.048260     0.001200     NO 
 Predicted change in Energy=-1.850483D-02
 GradGradGradGradGradGradGradGradGradGradGradGradGradGradGradGradGradGrad

                          Input orientation:                          
 ---------------------------------------------------------------------
 Center     Atomic      Atomic             Coordinates (Angstroms)
 Number     Number       Type             X           Y           Z
 ---------------------------------------------------------------------
      1          6           0        0.199621   -2.246335   -1.440820
      2          8           0        1.337440   -2.674980   -1.258132
      3          8           0       -0.627232   -1.761405   -2.210628
 ---------------------------------------------------------------------
                    Distance matrix (angstroms):
                    1          2          3
     1  C    0.000000
     2  O    1.229530   0.000000
     3  O    1.229409   2.366813   0.000000
 Stoichiometry    CO2
 Framework group  CS[SG(CO2)]
 Deg. of freedom     3
 Full point group                 CS      NOp   2
 Largest Abelian subgroup         CS      NOp   2
 Largest concise Abelian subgroup C1      NOp   1
                         Standard orientation:                         
 ---------------------------------------------------------------------
 Center     Atomic      Atomic             Coordinates (Angstroms)
 Number     Number       Type             X           Y           Z
 ---------------------------------------------------------------------
      1          6           0        0.000000    0.242460    0.000000
      2          8           0        1.183406   -0.091146    0.000000
      3          8           0       -1.183406   -0.090700    0.000000
 ---------------------------------------------------------------------
 Rotational constants (GHZ):    521.0630515     11.2807379     11.0416912
 Standard basis: 6-31G(d) (6D, 7F)
 There are    33 symmetry adapted cartesian basis functions of A'  symmetry.
 There are    12 symmetry adapted cartesian basis functions of A"  symmetry.
 There are    33 symmetry adapted basis functions of A'  symmetry.
 There are    12 symmetry adapted basis functions of A"  symmetry.
    45 basis functions,    84 primitive gaussians,    45 cartesian basis functions
    11 alpha electrons       11 beta electrons
       nuclear repulsion energy        55.6287290125 Hartrees.
 NAtoms=    3 NActive=    3 NUniq=    3 SFac= 1.00D+00 NAtFMM=   60 NAOKFM=F Big=F
 Integral buffers will be    131072 words long.
 Raffenetti 2 integral format.
 Two-electron integral symmetry is turned on.
 One-electron integrals computed using PRISM.
 NBasis=    45 RedAO= T EigKep=  7.67D-03  NBF=    33    12
 NBsUse=    45 1.00D-06 EigRej= -1.00D+00 NBFU=    33    12
 Initial guess from the checkpoint file:  "/tmp/Gau-16048.chk"
 B after Tr=     0.000000    0.000000    0.000000
         Rot=    1.000000    0.000000    0.000000    0.000242 Ang=   0.03 deg.
 Initial guess orbital symmetries:
       Occupied  (A') (A') (A') (A') (A') (A') (A') (A') (A") (A")
                 (A')
       Virtual   (A') (A') (A') (A') (A') (A') (A') (A') (A') (A')
                 (A') (A') (A') (A') (A') (A') (A') (A') (A') (A')
                 (A') (A') (A') (A') (A") (A") (A") (A") (A") (A")
                 (A") (A") (A") (A")
 ExpMin= 1.69D-01 ExpMax= 5.48D+03 ExpMxC= 8.25D+02 IAcc=2 IRadAn=         4 AccDes= 0.00D+00
 Harris functional with IExCor=  402 and IRadAn=       4 diagonalized for initial guess.
 HarFok:  IExCor=  402 AccDes= 0.00D+00 IRadAn=         4 IDoV= 1 UseB2=F ITyADJ=14
 ICtDFT=  3500011 ScaDFX=  1.000000  1.000000  1.000000  1.000000
 FoFCou: FMM=F IPFlag=           0 FMFlag=      100000 FMFlg1=           0
         NFxFlg=           0 DoJE=T BraDBF=F KetDBF=T FulRan=T
         wScrn=  0.000000 ICntrl=     500 IOpCl=  0 I1Cent=   200000004 NGrid=           0
         NMat0=    1 NMatS0=      1 NMatT0=    0 NMatD0=    1 NMtDS0=    0 NMtDT0=    0
 Petite list used in FoFCou.
 Keep R1 ints in memory in symmetry-blocked form, NReq=1431183.
 Requested convergence on RMS density matrix=1.00D-08 within 128 cycles.
 Requested convergence on MAX density matrix=1.00D-06.
 Requested convergence on             energy=1.00D-06.
 No special actions if energy rises.
 Integral accuracy reduced to 1.0D-05 until final iterations.
 Initial convergence to 1.0D-05 achieved.  Increase integral accuracy.
 SCF Done:  E(RB3LYP) =  -188.545672409     A.U. after   13 cycles
            NFock= 13  Conv=0.55D-09     -V/T= 2.0109
 Calling FoFJK, ICntrl=      2127 FMM=F ISym2X=1 I1Cent= 0 IOpClX= 0 NMat=1 NMatS=1 NMatT=0.
 ***** Axes restored to original set *****
 -------------------------------------------------------------------
 Center     Atomic                   Forces (Hartrees/Bohr)
 Number     Number              X              Y              Z
 -------------------------------------------------------------------
      1        6           0.055991648    0.010075628   -0.105499135
      2        8          -0.088512941    0.023098068    0.023427262
      3        8           0.032521293   -0.033173695    0.082071873
 -------------------------------------------------------------------
 Cartesian Forces:  Max     0.105499135 RMS     0.059793598

 GradGradGradGradGradGradGradGradGradGradGradGradGradGradGradGradGradGrad
 Berny optimization.
 Search for a local minimum.
 Step number   4 out of a maximum of   20
 All quantities printed in internal units (Hartrees-Bohrs-Radians)
 Update second derivatives using D2CorN and points    2    3    4
 DE= -3.01D-02 DEPred=-1.85D-02 R= 1.63D+00
 TightC=F SS=  1.41D+00  RLast= 1.45D-01 DXNew= 8.4853D-01 4.3434D-01
 Trust test= 1.63D+00 RLast= 1.45D-01 DXMaxT set to 5.05D-01
 The second derivative matrix:
                          X1        Y1        Z1        X2        Y2
           X1           1.14642
           Y1          -0.14870   1.05416
           Z1           0.36711  -0.01704   0.61353
           X2          -0.77333   0.29996  -0.15587   0.81001
           Y2           0.20027  -0.08463   0.06590   0.06949   0.91277
           Z2           0.21032  -0.05605  -0.05139  -0.02284   0.23541
           X3          -0.27951   0.12976  -0.13474   0.05691   0.01126
           Y3           0.22945  -0.12565   0.18088  -0.08843   0.01573
           Z3          -0.50092   0.30283  -0.49960   0.25521  -0.07157
                          Z2        X3        Y3        Z3
           Z2           0.16322
           X3          -0.11097   0.31618
           Y3           0.05037   0.14000   0.95379
           Z3          -0.04929   0.32222  -0.00152   0.61143
 ITU=  1  0  1  0
     Eigenvalues ---    0.33501   0.77161   2.30063
 RFO step:  Lambda=-2.03959066D-02 EMin= 3.35006210D-01
 ClnCor:  largest displacement from symmetrization is 1.33D-16 for atom     1.
 Quartic linear search produced a step of  1.06978.
 ClnCor:  largest displacement from symmetrization is 2.74D-07 for atom     1.
 TrRot= -0.003106 -0.000560  0.005852  0.000027 -0.000001 -0.000027
 Variable       Old X    -DE/DX   Delta X   Delta X   Delta X     New X
                                 (Linear)    (Quad)   (Total)
    X1        0.37723   0.05599   0.02517   0.06951   0.09157   0.46880
    Y1       -4.24496   0.01008   0.00469   0.01253   0.01666  -4.22830
    Z1       -2.72276  -0.10550  -0.04800  -0.13105  -0.17320  -2.89596
    X2        2.52740  -0.08851  -0.09464   0.05865  -0.03909   2.48830
    Y2       -5.05498   0.02310   0.03582  -0.04670  -0.01144  -5.06642
    Z2       -2.37753   0.02343  -0.01582   0.09979   0.08982  -2.28770
    X3       -1.18530   0.03252   0.06947  -0.11885  -0.05248  -1.23778
    Y3       -3.32857  -0.03317  -0.04051   0.03585  -0.00522  -3.33380
    Z3       -4.17748   0.08207   0.06382   0.01371   0.08338  -4.09410
         Item               Value     Threshold  Converged?
 Maximum Force            0.105499     0.000450     NO 
 RMS     Force            0.059794     0.000300     NO 
 Maximum Displacement     0.173199     0.001800     NO 
 RMS     Displacement     0.080361     0.001200     NO 
 Predicted change in Energy=-1.635893D-02
 GradGradGradGradGradGradGradGradGradGradGradGradGradGradGradGradGradGrad

                          Input orientation:                          
 ---------------------------------------------------------------------
 Center     Atomic      Atomic             Coordinates (Angstroms)
 Number     Number       Type             X           Y           Z
 ---------------------------------------------------------------------
      1          6           0        0.248080   -2.237520   -1.532474
      2          8           0        1.316754   -2.681031   -1.210601
      3          8           0       -0.655004   -1.764169   -2.166506
 ---------------------------------------------------------------------
                    Distance matrix (angstroms):
                    1          2          3
     1  C    0.000000
     2  O    1.200986   0.000000
     3  O    1.200674   2.375336   0.000000
 Stoichiometry    CO2
 Framework group  CS[SG(CO2)]
 Deg. of freedom     3
 Full point group                 CS      NOp   2
 Largest Abelian subgroup         CS      NOp   2
 Largest concise Abelian subgroup C1      NOp   1
                         Standard orientation:                         
 ---------------------------------------------------------------------
 Center     Atomic      Atomic             Coordinates (Angstroms)
 Number     Number       Type             X           Y           Z
 ---------------------------------------------------------------------
      1          6           0        0.000000    0.128952    0.000000
      2          8           0        1.187668   -0.049413    0.000000
      3          8           0       -1.187668   -0.047301    0.000000
 ---------------------------------------------------------------------
 Rotational constants (GHZ):   1842.1090369     11.1999259     11.1322425
 Standard basis: 6-31G(d) (6D, 7F)
 There are    33 symmetry adapted cartesian basis functions of A'  symmetry.
 There are    12 symmetry adapted cartesian basis functions of A"  symmetry.
 There are    33 symmetry adapted basis functions of A'  symmetry.
 There are    12 symmetry adapted basis functions of A"  symmetry.
    45 basis functions,    84 primitive gaussians,    45 cartesian basis functions
    11 alpha electrons       11 beta electrons
       nuclear repulsion energy        56.5628168466 Hartrees.
 NAtoms=    3 NActive=    3 NUniq=    3 SFac= 1.00D+00 NAtFMM=   60 NAOKFM=F Big=F
 Integral buffers will be    131072 words long.
 Raffenetti 2 integral format.
 Two-electron integral symmetry is turned on.
 One-electron integrals computed using PRISM.
 NBasis=    45 RedAO= T EigKep=  5.05D-03  NBF=    33    12
 NBsUse=    45 1.00D-06 EigRej= -1.00D+00 NBFU=    33    12
 Initial guess from the checkpoint file:  "/tmp/Gau-16048.chk"
 B after Tr=     0.000000    0.000000    0.000000
         Rot=    1.000000    0.000000    0.000000    0.000346 Ang=   0.04 deg.
 Initial guess orbital symmetries:
       Occupied  (A') (A') (A') (A') (A') (A') (A') (A') (A") (A")
                 (A')
       Virtual   (A') (A') (A') (A') (A') (A') (A') (A') (A') (A')
                 (A') (A') (A') (A') (A') (A') (A') (A') (A') (A')
                 (A') (A') (A') (A') (A") (A") (A") (A") (A") (A")
                 (A") (A") (A") (A")
 ExpMin= 1.69D-01 ExpMax= 5.48D+03 ExpMxC= 8.25D+02 IAcc=2 IRadAn=         4 AccDes= 0.00D+00
 Harris functional with IExCor=  402 and IRadAn=       4 diagonalized for initial guess.
 HarFok:  IExCor=  402 AccDes= 0.00D+00 IRadAn=         4 IDoV= 1 UseB2=F ITyADJ=14
 ICtDFT=  3500011 ScaDFX=  1.000000  1.000000  1.000000  1.000000
 FoFCou: FMM=F IPFlag=           0 FMFlag=      100000 FMFlg1=           0
         NFxFlg=           0 DoJE=T BraDBF=F KetDBF=T FulRan=T
         wScrn=  0.000000 ICntrl=     500 IOpCl=  0 I1Cent=   200000004 NGrid=           0
         NMat0=    1 NMatS0=      1 NMatT0=    0 NMatD0=    1 NMtDS0=    0 NMtDT0=    0
 Petite list used in FoFCou.
 Keep R1 ints in memory in symmetry-blocked form, NReq=1431183.
 Requested convergence on RMS density matrix=1.00D-08 within 128 cycles.
 Requested convergence on MAX density matrix=1.00D-06.
 Requested convergence on             energy=1.00D-06.
 No special actions if energy rises.
 Integral accuracy reduced to 1.0D-05 until final iterations.
 Initial convergence to 1.0D-05 achieved.  Increase integral accuracy.
 SCF Done:  E(RB3LYP) =  -188.570427105     A.U. after   13 cycles
            NFock= 13  Conv=0.10D-08     -V/T= 2.0102
 Calling FoFJK, ICntrl=      2127 FMM=F ISym2X=1 I1Cent= 0 IOpClX= 0 NMat=1 NMatS=1 NMatT=0.
 ***** Axes restored to original set *****
 -------------------------------------------------------------------
 Center     Atomic                   Forces (Hartrees/Bohr)
 Number     Number              X              Y              Z
 -------------------------------------------------------------------
      1        6           0.026924323    0.004640065   -0.049977855
      2        8          -0.056261632    0.017572728    0.004272478
      3        8           0.029337309   -0.022212793    0.045705377
 -------------------------------------------------------------------
 Cartesian Forces:  Max     0.056261632 RMS     0.033631547

 GradGradGradGradGradGradGradGradGradGradGradGradGradGradGradGradGradGrad
 Berny optimization.
 Search for a local minimum.
 Step number   5 out of a maximum of   20
 All quantities printed in internal units (Hartrees-Bohrs-Radians)
 Update second derivatives using D2CorN and points    3    4    5
 DE= -2.48D-02 DEPred=-1.64D-02 R= 1.51D+00
 TightC=F SS=  1.41D+00  RLast= 2.41D-01 DXNew= 8.4853D-01 7.2325D-01
 Trust test= 1.51D+00 RLast= 2.41D-01 DXMaxT set to 7.23D-01
 The second derivative matrix:
                          X1        Y1        Z1        X2        Y2
           X1           1.10079
           Y1          -0.15655   1.05281
           Z1           0.45175  -0.00250   0.45659
           X2          -0.73752   0.30609  -0.22219   0.78536
           Y2           0.19822  -0.08498   0.06967   0.06950   0.91341
           Z2           0.17406  -0.06229   0.01589   0.00725   0.23303
           X3          -0.26969   0.13148  -0.15305   0.04574   0.01330
           Y3           0.23936  -0.12397   0.16257  -0.09458   0.01543
           Z3          -0.54931   0.29453  -0.40994   0.29145  -0.07295
                          Z2        X3        Y3        Z3
           Z2           0.13519
           X3          -0.10480   0.31753
           Y3           0.05900   0.13624   0.95241
           Z3          -0.08854   0.33436   0.00816   0.56102
 ITU=  1  1  0  1  0
     Eigenvalues ---    0.23492   0.56663   2.20747
 RFO step:  Lambda=-3.46795075D-03 EMin= 2.34919630D-01
 ClnCor:  largest displacement from symmetrization is 5.39D-17 for atom     1.
 Quartic linear search produced a step of  1.10795.
 ClnCor:  largest displacement from symmetrization is 8.61D-08 for atom     1.
 TrRot=  0.000616  0.000120 -0.001199  0.000563 -0.000001 -0.000563
 Variable       Old X    -DE/DX   Delta X   Delta X   Delta X     New X
                                 (Linear)    (Quad)   (Total)
    X1        0.46880   0.02692   0.10146  -0.01387   0.08821   0.55701
    Y1       -4.22830   0.00464   0.01846  -0.00269   0.01589  -4.21241
    Z1       -2.89596  -0.04998  -0.19190   0.02684  -0.16626  -3.06221
    X2        2.48830  -0.05626  -0.04331  -0.04770  -0.09039   2.39791
    Y2       -5.06642   0.01757  -0.01267   0.02613   0.01358  -5.05283
    Z2       -2.28770   0.00427   0.09952  -0.03763   0.06069  -2.22702
    X3       -1.23778   0.02934  -0.05815   0.05972   0.00219  -1.23559
    Y3       -3.33380  -0.02221  -0.00579  -0.02380  -0.02947  -3.36327
    Z3       -4.09410   0.04571   0.09238   0.01439   0.10557  -3.98853
         Item               Value     Threshold  Converged?
 Maximum Force            0.056262     0.000450     NO 
 RMS     Force            0.033632     0.000300     NO 
 Maximum Displacement     0.166259     0.001800     NO 
 RMS     Displacement     0.081467     0.001200     NO 
 Predicted change in Energy=-8.955123D-03
 GradGradGradGradGradGradGradGradGradGradGradGradGradGradGradGradGradGrad

                          Input orientation:                          
 ---------------------------------------------------------------------
 Center     Atomic      Atomic             Coordinates (Angstroms)
 Number     Number       Type             X           Y           Z
 ---------------------------------------------------------------------
      1          6           0        0.294757   -2.229112   -1.620454
      2          8           0        1.268919   -2.673845   -1.178486
      3          8           0       -0.653846   -1.779763   -2.110640
 ---------------------------------------------------------------------
                    Distance matrix (angstroms):
                    1          2          3
     1  C    0.000000
     2  O    1.158497   0.000000
     3  O    1.158466   2.316315   0.000000
 Stoichiometry    CO2
 Framework group  CS[SG(CO2)]
 Deg. of freedom     3
 Full point group                 CS      NOp   2
 Largest Abelian subgroup         CS      NOp   2
 Largest concise Abelian subgroup C1      NOp   1
                         Standard orientation:                         
 ---------------------------------------------------------------------
 Center     Atomic      Atomic             Coordinates (Angstroms)
 Number     Number       Type             X           Y           Z
 ---------------------------------------------------------------------
      1          6           0        0.000000    0.019916    0.000000
      2          8           0        1.158158   -0.008137    0.000000
      3          8           0       -1.158158   -0.006800    0.000000
 ---------------------------------------------------------------------
 Rotational constants (GHZ):  77227.4030317     11.7779537     11.7761577
 Standard basis: 6-31G(d) (6D, 7F)
 There are    33 symmetry adapted cartesian basis functions of A'  symmetry.
 There are    12 symmetry adapted cartesian basis functions of A"  symmetry.
 There are    33 symmetry adapted basis functions of A'  symmetry.
 There are    12 symmetry adapted basis functions of A"  symmetry.
    45 basis functions,    84 primitive gaussians,    45 cartesian basis functions
    11 alpha electrons       11 beta electrons
       nuclear repulsion energy        58.4725942792 Hartrees.
 NAtoms=    3 NActive=    3 NUniq=    3 SFac= 1.00D+00 NAtFMM=   60 NAOKFM=F Big=F
 Integral buffers will be    131072 words long.
 Raffenetti 2 integral format.
 Two-electron integral symmetry is turned on.
 One-electron integrals computed using PRISM.
 NBasis=    45 RedAO= T EigKep=  3.98D-03  NBF=    33    12
 NBsUse=    45 1.00D-06 EigRej= -1.00D+00 NBFU=    33    12
 Initial guess from the checkpoint file:  "/tmp/Gau-16048.chk"
 B after Tr=     0.000000    0.000000    0.000000
         Rot=    1.000000    0.000000    0.000000   -0.000156 Ang=  -0.02 deg.
 Initial guess orbital symmetries:
       Occupied  (A') (A') (A') (A') (A') (A') (A') (A') (A") (A")
                 (A')
       Virtual   (A') (A') (A') (A') (A') (A') (A') (A') (A') (A')
                 (A') (A') (A') (A') (A') (A') (A') (A') (A') (A')
                 (A') (A') (A') (A') (A") (A") (A") (A") (A") (A")
                 (A") (A") (A") (A")
 ExpMin= 1.69D-01 ExpMax= 5.48D+03 ExpMxC= 8.25D+02 IAcc=2 IRadAn=         4 AccDes= 0.00D+00
 Harris functional with IExCor=  402 and IRadAn=       4 diagonalized for initial guess.
 HarFok:  IExCor=  402 AccDes= 0.00D+00 IRadAn=         4 IDoV= 1 UseB2=F ITyADJ=14
 ICtDFT=  3500011 ScaDFX=  1.000000  1.000000  1.000000  1.000000
 FoFCou: FMM=F IPFlag=           0 FMFlag=      100000 FMFlg1=           0
         NFxFlg=           0 DoJE=T BraDBF=F KetDBF=T FulRan=T
         wScrn=  0.000000 ICntrl=     500 IOpCl=  0 I1Cent=   200000004 NGrid=           0
         NMat0=    1 NMatS0=      1 NMatT0=    0 NMatD0=    1 NMtDS0=    0 NMtDT0=    0
 Petite list used in FoFCou.
 Keep R1 ints in memory in symmetry-blocked form, NReq=1431183.
 Requested convergence on RMS density matrix=1.00D-08 within 128 cycles.
 Requested convergence on MAX density matrix=1.00D-06.
 Requested convergence on             energy=1.00D-06.
 No special actions if energy rises.
 Integral accuracy reduced to 1.0D-05 until final iterations.
 Initial convergence to 1.0D-05 achieved.  Increase integral accuracy.
 SCF Done:  E(RB3LYP) =  -188.580272338     A.U. after   12 cycles
            NFock= 12  Conv=0.88D-08     -V/T= 2.0084
 Calling FoFJK, ICntrl=      2127 FMM=F ISym2X=1 I1Cent= 0 IOpClX= 0 NMat=1 NMatS=1 NMatT=0.
 ***** Axes restored to original set *****
 -------------------------------------------------------------------
 Center     Atomic                   Forces (Hartrees/Bohr)
 Number     Number              X              Y              Z
 -------------------------------------------------------------------
      1        6           0.002972913    0.000504772   -0.005490600
      2        8           0.018536845   -0.009563391    0.012453359
      3        8          -0.021509758    0.009058619   -0.006962759
 -------------------------------------------------------------------
 Cartesian Forces:  Max     0.021509758 RMS     0.011655267

 GradGradGradGradGradGradGradGradGradGradGradGradGradGradGradGradGradGrad
 Berny optimization.
 Search for a local minimum.
 Step number   6 out of a maximum of   20
 All quantities printed in internal units (Hartrees-Bohrs-Radians)
 Update second derivatives using D2CorN and points    4    5    6
 DE= -9.85D-03 DEPred=-8.96D-03 R= 1.10D+00
 TightC=F SS=  1.41D+00  RLast= 2.44D-01 DXNew= 1.2164D+00 7.3320D-01
 Trust test= 1.10D+00 RLast= 2.44D-01 DXMaxT set to 7.33D-01
 The second derivative matrix:
                          X1        Y1        Z1        X2        Y2
           X1           1.08385
           Y1          -0.15945   1.05232
           Z1           0.48310   0.00285   0.39859
           X2          -0.74544   0.30453  -0.20676   0.81319
           Y2           0.20738  -0.08331   0.05235   0.05911   0.91530
           Z2           0.15010  -0.06649   0.06062   0.01140   0.23883
           X3          -0.24483   0.13594  -0.19984   0.02583   0.01454
           Y3           0.23309  -0.12514   0.17454  -0.08262   0.01189
           Z3          -0.55670   0.29337  -0.39666   0.27186  -0.06144
                          Z2        X3        Y3        Z3
           Z2           0.10878
           X3          -0.08500   0.31258
           Y3           0.05739   0.13055   0.95712
           Z3          -0.10685   0.36134  -0.00219   0.56605
 ITU=  1  1  1  0  1  0
     Eigenvalues ---    0.09696   0.63776   2.10106
 RFO step:  Lambda=-5.58057223D-03 EMin= 9.69619356D-02
 ClnCor:  largest displacement from symmetrization is 8.86D-17 for atom     1.
 Quartic linear search produced a step of -0.04760.
 ClnCor:  largest displacement from symmetrization is 4.16D-09 for atom     1.
 TrRot= -0.003164 -0.000570  0.005965  0.000086  0.000000 -0.000086
 Variable       Old X    -DE/DX   Delta X   Delta X   Delta X     New X
                                 (Linear)    (Quad)   (Total)
    X1        0.55701   0.00297  -0.00420   0.07084   0.06348   0.62049
    Y1       -4.21241   0.00050  -0.00076   0.01277   0.01144  -4.20097
    Z1       -3.06221  -0.00549   0.00791  -0.13356  -0.11968  -3.18190
    X2        2.39791   0.01854   0.00430   0.04581   0.04695   2.44486
    Y2       -5.05283  -0.00956  -0.00065  -0.04109  -0.04231  -5.09515
    Z2       -2.22702   0.01245  -0.00289   0.09491   0.09799  -2.12903
    X3       -1.23559  -0.02151  -0.00010  -0.10716  -0.11043  -1.34602
    Y3       -3.36327   0.00906   0.00140   0.03003   0.03087  -3.33240
    Z3       -3.98853  -0.00696  -0.00502   0.02075   0.02169  -3.96684
         Item               Value     Threshold  Converged?
 Maximum Force            0.021510     0.000450     NO 
 RMS     Force            0.011655     0.000300     NO 
 Maximum Displacement     0.119684     0.001800     NO 
 RMS     Displacement     0.071257     0.001200     NO 
 Predicted change in Energy=-3.161968D-03
 GradGradGradGradGradGradGradGradGradGradGradGradGradGradGradGradGradGrad

                          Input orientation:                          
 ---------------------------------------------------------------------
 Center     Atomic      Atomic             Coordinates (Angstroms)
 Number     Number       Type             X           Y           Z
 ---------------------------------------------------------------------
      1          6           0        0.328349   -2.223056   -1.683788
      2          8           0        1.293762   -2.696235   -1.126632
      3          8           0       -0.712281   -1.763429   -2.099160
 ---------------------------------------------------------------------
                    Distance matrix (angstroms):
                    1          2          3
     1  C    0.000000
     2  O    1.210927   0.000000
     3  O    1.211074   2.416639   0.000000
 Stoichiometry    CO2
 Framework group  CS[SG(CO2)]
 Deg. of freedom     3
 Full point group                 CS      NOp   2
 Largest Abelian subgroup         CS      NOp   2
 Largest concise Abelian subgroup C1      NOp   1
                         Standard orientation:                         
 ---------------------------------------------------------------------
 Center     Atomic      Atomic             Coordinates (Angstroms)
 Number     Number       Type             X           Y           Z
 ---------------------------------------------------------------------
      1          6           0        0.000000   -0.058571    0.000000
      2          8           0        1.208319    0.020857    0.000000
      3          8           0       -1.208319    0.023072    0.000000
 ---------------------------------------------------------------------
 Rotational constants (GHZ):   8928.9552867     10.8203594     10.8072628
 Standard basis: 6-31G(d) (6D, 7F)
 There are    33 symmetry adapted cartesian basis functions of A'  symmetry.
 There are    12 symmetry adapted cartesian basis functions of A"  symmetry.
 There are    33 symmetry adapted basis functions of A'  symmetry.
 There are    12 symmetry adapted basis functions of A"  symmetry.
    45 basis functions,    84 primitive gaussians,    45 cartesian basis functions
    11 alpha electrons       11 beta electrons
       nuclear repulsion energy        55.9638557127 Hartrees.
 NAtoms=    3 NActive=    3 NUniq=    3 SFac= 1.00D+00 NAtFMM=   60 NAOKFM=F Big=F
 Integral buffers will be    131072 words long.
 Raffenetti 2 integral format.
 Two-electron integral symmetry is turned on.
 One-electron integrals computed using PRISM.
 NBasis=    45 RedAO= T EigKep=  4.34D-03  NBF=    33    12
 NBsUse=    45 1.00D-06 EigRej= -1.00D+00 NBFU=    33    12
 Initial guess from the checkpoint file:  "/tmp/Gau-16048.chk"
 B after Tr=     0.000000    0.000000    0.000000
         Rot=    0.000000    1.000000   -0.000747    0.000000 Ang= 180.00 deg.
 Initial guess orbital symmetries:
       Occupied  (A') (A') (A') (A') (A') (A') (A') (A') (A") (A")
                 (A')
       Virtual   (A') (A') (A') (A') (A') (A') (A') (A') (A') (A')
                 (A') (A') (A') (A') (A') (A') (A') (A') (A') (A')
                 (A') (A') (A') (A') (A") (A") (A") (A") (A") (A")
                 (A") (A") (A") (A")
 ExpMin= 1.69D-01 ExpMax= 5.48D+03 ExpMxC= 8.25D+02 IAcc=2 IRadAn=         4 AccDes= 0.00D+00
 Harris functional with IExCor=  402 and IRadAn=       4 diagonalized for initial guess.
 HarFok:  IExCor=  402 AccDes= 0.00D+00 IRadAn=         4 IDoV= 1 UseB2=F ITyADJ=14
 ICtDFT=  3500011 ScaDFX=  1.000000  1.000000  1.000000  1.000000
 FoFCou: FMM=F IPFlag=           0 FMFlag=      100000 FMFlg1=           0
         NFxFlg=           0 DoJE=T BraDBF=F KetDBF=T FulRan=T
         wScrn=  0.000000 ICntrl=     500 IOpCl=  0 I1Cent=   200000004 NGrid=           0
         NMat0=    1 NMatS0=      1 NMatT0=    0 NMatD0=    1 NMtDS0=    0 NMtDT0=    0
 Petite list used in FoFCou.
 Keep R1 ints in memory in symmetry-blocked form, NReq=1431183.
 Requested convergence on RMS density matrix=1.00D-08 within 128 cycles.
 Requested convergence on MAX density matrix=1.00D-06.
 Requested convergence on             energy=1.00D-06.
 No special actions if energy rises.
 Integral accuracy reduced to 1.0D-05 until final iterations.
 Initial convergence to 1.0D-05 achieved.  Increase integral accuracy.
 SCF Done:  E(RB3LYP) =  -188.573195672     A.U. after   12 cycles
            NFock= 12  Conv=0.12D-08     -V/T= 2.0107
 Calling FoFJK, ICntrl=      2127 FMM=F ISym2X=1 I1Cent= 0 IOpClX= 0 NMat=1 NMatS=1 NMatT=0.
 ***** Axes restored to original set *****
 -------------------------------------------------------------------
 Center     Atomic                   Forces (Hartrees/Bohr)
 Number     Number              X              Y              Z
 -------------------------------------------------------------------
      1        6          -0.012779177   -0.002210774    0.023752126
      2        8          -0.056689637    0.030435373   -0.042450504
      3        8           0.069468814   -0.028224599    0.018698378
 -------------------------------------------------------------------
 Cartesian Forces:  Max     0.069468814 RMS     0.037485707

 GradGradGradGradGradGradGradGradGradGradGradGradGradGradGradGradGradGrad
 Berny optimization.
 Search for a local minimum.
 Step number   7 out of a maximum of   20
 All quantities printed in internal units (Hartrees-Bohrs-Radians)
 Update second derivatives using D2CorN and points    4    5    7    6
 DE=  7.08D-03 DEPred=-3.16D-03 R=-2.24D+00
 Trust test=-2.24D+00 RLast= 2.14D-01 DXMaxT set to 3.67D-01
 The second derivative matrix:
                          X1        Y1        Z1        X2        Y2
           X1           1.10295
           Y1          -0.15604   1.05293
           Z1           0.44722  -0.00355   0.46600
           X2          -0.70119   0.31242  -0.28985   0.88068
           Y2           0.18067  -0.08807   0.10250   0.01347   0.94511
           Z2           0.19405  -0.05865  -0.02194   0.09649   0.18514
           X3          -0.30818   0.12464  -0.08086  -0.08590   0.08688
           Y3           0.25638  -0.12099   0.13079  -0.04486  -0.01317
           Z3          -0.56476   0.29194  -0.38152   0.26987  -0.05790
                          Z2        X3        Y3        Z3
           Z2           0.20192
           X3          -0.21404   0.48767
           Y3           0.10325   0.06950   0.97803
           Z3          -0.11743   0.37140  -0.00430   0.56150
 ITU= -1  1  1  1  0  1  0
 Energy rises -- skip Quadratic search.
 Quartic linear search produced a step of -0.77462.
 ClnCor:  largest displacement from symmetrization is 1.80D-10 for atom     1.
 TrRot=  0.000000  0.000000  0.000000  0.000000  0.000000  0.000000
 Variable       Old X    -DE/DX   Delta X   Delta X   Delta X     New X
                                 (Linear)    (Quad)   (Total)
    X1        0.62049  -0.01278  -0.04917   0.00000  -0.04917   0.57132
    Y1       -4.20097  -0.00221  -0.00886   0.00000  -0.00886  -4.20983
    Z1       -3.18190   0.02375   0.09271   0.00000   0.09271  -3.08919
    X2        2.44486  -0.05669  -0.03637   0.00000  -0.03637   2.40849
    Y2       -5.09515   0.03044   0.03278   0.00000   0.03278  -5.06237
    Z2       -2.12903  -0.04245  -0.07591   0.00000  -0.07591  -2.20493
    X3       -1.34602   0.06947   0.08554   0.00000   0.08554  -1.26048
    Y3       -3.33240  -0.02822  -0.02391   0.00000  -0.02391  -3.35631
    Z3       -3.96684   0.01870  -0.01681   0.00000  -0.01681  -3.98364
         Item               Value     Threshold  Converged?
 Maximum Force            0.069469     0.000450     NO 
 RMS     Force            0.037486     0.000300     NO 
 Maximum Displacement     0.092710     0.001800     NO 
 RMS     Displacement     0.055198     0.001200     NO 
 Predicted change in Energy=-6.244164D-04
 GradGradGradGradGradGradGradGradGradGradGradGradGradGradGradGradGradGrad

                          Input orientation:                          
 ---------------------------------------------------------------------
 Center     Atomic      Atomic             Coordinates (Angstroms)
 Number     Number       Type             X           Y           Z
 ---------------------------------------------------------------------
      1          6           0        0.302327   -2.227747   -1.634728
      2          8           0        1.274518   -2.678891   -1.166799
      3          8           0       -0.667015   -1.776082   -2.108053
 ---------------------------------------------------------------------
                    Distance matrix (angstroms):
                    1          2          3
     1  C    0.000000
     2  O    1.169463   0.000000
     3  O    1.169471   2.338926   0.000000
 Stoichiometry    CO2
 Framework group  CS[SG(CO2)]
 Deg. of freedom     3
 Full point group                 CS      NOp   2
 Largest Abelian subgroup         CS      NOp   2
 Largest concise Abelian subgroup C1      NOp   1
                         Standard orientation:                         
 ---------------------------------------------------------------------
 Center     Atomic      Atomic             Coordinates (Angstroms)
 Number     Number       Type             X           Y           Z
 ---------------------------------------------------------------------
      1          6           0        0.000000    0.002227    0.000000
      2          8           0        1.169462    0.000841    0.000000
      3          8           0       -1.169462   -0.002511    0.000000
 ---------------------------------------------------------------------
 Rotational constants (GHZ):6177373.4307510     11.5513389     11.5513173
 Standard basis: 6-31G(d) (6D, 7F)
 There are    33 symmetry adapted cartesian basis functions of A'  symmetry.
 There are    12 symmetry adapted cartesian basis functions of A"  symmetry.
 There are    33 symmetry adapted basis functions of A'  symmetry.
 There are    12 symmetry adapted basis functions of A"  symmetry.
    45 basis functions,    84 primitive gaussians,    45 cartesian basis functions
    11 alpha electrons       11 beta electrons
       nuclear repulsion energy        57.9193273926 Hartrees.
 NAtoms=    3 NActive=    3 NUniq=    3 SFac= 1.00D+00 NAtFMM=   60 NAOKFM=F Big=F
 Integral buffers will be    131072 words long.
 Raffenetti 2 integral format.
 Two-electron integral symmetry is turned on.
 One-electron integrals computed using PRISM.
 NBasis=    45 RedAO= T EigKep=  3.99D-03  NBF=    33    12
 NBsUse=    45 1.00D-06 EigRej= -1.00D+00 NBFU=    33    12
 Lowest energy guess from the checkpoint file:  "/tmp/Gau-16048.chk"
 B after Tr=     0.000000    0.000000    0.000000
         Rot=    0.999999    0.000000    0.000000   -0.001005 Ang=  -0.12 deg.
 B after Tr=     0.000000    0.000000    0.000000
         Rot=    0.000000    1.000000    0.000258    0.000000 Ang= 180.00 deg.
 Initial guess orbital symmetries:
       Occupied  (A') (A') (A') (A") (A') (A') (A") (A') (A') (A')
                 (A')
       Virtual   (A') (A') (A') (A") (A') (A') (A") (A') (A') (A')
                 (A') (A') (A') (A') (A') (A') (A') (A') (A') (A')
                 (A') (A') (A') (A') (A") (?A) (?A) (A") (A") (?A)
                 (A") (A") (?A) (A")
 Keep R1 ints in memory in symmetry-blocked form, NReq=1431183.
 Requested convergence on RMS density matrix=1.00D-08 within 128 cycles.
 Requested convergence on MAX density matrix=1.00D-06.
 Requested convergence on             energy=1.00D-06.
 No special actions if energy rises.
 Integral accuracy reduced to 1.0D-05 until final iterations.
 An orbital has undefined symmetry, so N**3 symmetry is turned off.
 Initial convergence to 1.0D-05 achieved.  Increase integral accuracy.
 SCF Done:  E(RB3LYP) =  -188.580936805     A.U. after    9 cycles
            NFock=  9  Conv=0.83D-08     -V/T= 2.0089
 Calling FoFJK, ICntrl=      2127 FMM=F ISym2X=1 I1Cent= 0 IOpClX= 0 NMat=1 NMatS=1 NMatT=0.
 ***** Axes restored to original set *****
 -------------------------------------------------------------------
 Center     Atomic                   Forces (Hartrees/Bohr)
 Number     Number              X              Y              Z
 -------------------------------------------------------------------
      1        6           0.000352505    0.000072584   -0.000697802
      2        8          -0.000723359    0.000218116    0.000083646
      3        8           0.000370854   -0.000290701    0.000614156
 -------------------------------------------------------------------
 Cartesian Forces:  Max     0.000723359 RMS     0.000446406

 GradGradGradGradGradGradGradGradGradGradGradGradGradGradGradGradGradGrad
 Berny optimization.
 Search for a local minimum.
 Step number   8 out of a maximum of   20
 All quantities printed in internal units (Hartrees-Bohrs-Radians)
 Update second derivatives using D2CorN and points    3    4    5    6    8

 The second derivative matrix:
                          X1        Y1        Z1        X2        Y2
           X1           1.08896
           Y1          -0.15861   1.05245
           Z1           0.47380   0.00134   0.41551
           X2          -0.69695   0.31308  -0.29748   0.94354
           Y2           0.18324  -0.08755   0.09742  -0.01708   0.95846
           Z2           0.17944  -0.06140   0.00603   0.13181   0.17349
           X3          -0.29843   0.12655  -0.09981  -0.15301   0.11486
           Y3           0.25639  -0.12104   0.13097  -0.01498  -0.02704
           Z3          -0.57673   0.28979  -0.35899   0.24218  -0.04117
                          Z2        X3        Y3        Z3
           Z2           0.20153
           X3          -0.23474   0.54502
           Y3           0.11765   0.03961   0.99195
           Z3          -0.14501   0.41106  -0.01888   0.56655
 ITU=  0 -1  1  1  1  0  1  0
     Eigenvalues ---    0.24595   1.04482   2.08170
 RFO step:  Lambda=-4.71272358D-06 EMin= 2.45949144D-01
 ClnCor:  largest displacement from symmetrization is 2.69D-16 for atom     1.
 Quartic linear search produced a step of  0.00601.
 ClnCor:  largest displacement from symmetrization is 1.40D-12 for atom     1.
 TrRot= -0.000066 -0.000012  0.000126  0.000000  0.000000  0.000000
 Variable       Old X    -DE/DX   Delta X   Delta X   Delta X     New X
                                 (Linear)    (Quad)   (Total)
    X1        0.57132   0.00035   0.00009   0.00148   0.00150   0.57282
    Y1       -4.20983   0.00007   0.00002   0.00027   0.00028  -4.20955
    Z1       -3.08919  -0.00070  -0.00016  -0.00282  -0.00286  -3.09205
    X2        2.40849  -0.00072   0.00006  -0.00129  -0.00130   2.40719
    Y2       -5.06237   0.00022  -0.00006   0.00018   0.00011  -5.06226
    Z2       -2.20493   0.00008   0.00013   0.00091   0.00116  -2.20377
    X3       -1.26048   0.00037  -0.00015   0.00001  -0.00021  -1.26068
    Y3       -3.35631  -0.00029   0.00004  -0.00042  -0.00039  -3.35670
    Z3       -3.98364   0.00061   0.00003   0.00154   0.00169  -3.98195
         Item               Value     Threshold  Converged?
 Maximum Force            0.000723     0.000450     NO 
 RMS     Force            0.000446     0.000300     NO 
 Maximum Displacement     0.002857     0.001800     NO 
 RMS     Displacement     0.001359     0.001200     NO 
 Predicted change in Energy=-2.299846D-06
 GradGradGradGradGradGradGradGradGradGradGradGradGradGradGradGradGradGrad

                          Input orientation:                          
 ---------------------------------------------------------------------
 Center     Atomic      Atomic             Coordinates (Angstroms)
 Number     Number       Type             X           Y           Z
 ---------------------------------------------------------------------
      1          6           0        0.303123   -2.227600   -1.636240
      2          8           0        1.273832   -2.678830   -1.166183
      3          8           0       -0.667125   -1.776289   -2.107157
 ---------------------------------------------------------------------
                    Distance matrix (angstroms):
                    1          2          3
     1  C    0.000000
     2  O    1.169119   0.000000
     3  O    1.169114   2.338232   0.000000
 Stoichiometry    CO2
 Framework group  CS[SG(CO2)]
 Deg. of freedom     3
 Full point group                 CS      NOp   2
 Largest Abelian subgroup         CS      NOp   2
 Largest concise Abelian subgroup C1      NOp   1
                         Standard orientation:                         
 ---------------------------------------------------------------------
 Center     Atomic      Atomic             Coordinates (Angstroms)
 Number     Number       Type             X           Y           Z
 ---------------------------------------------------------------------
      1          6           0        0.000000    0.000356    0.000000
      2          8           0        1.169100   -0.006214    0.000000
      3          8           0       -1.169100    0.005946    0.000000
 ---------------------------------------------------------------------
 Rotational constants (GHZ):***************     11.5581937     11.5581932
 Standard basis: 6-31G(d) (6D, 7F)
 There are    33 symmetry adapted cartesian basis functions of A'  symmetry.
 There are    12 symmetry adapted cartesian basis functions of A"  symmetry.
 There are    33 symmetry adapted basis functions of A'  symmetry.
 There are    12 symmetry adapted basis functions of A"  symmetry.
    45 basis functions,    84 primitive gaussians,    45 cartesian basis functions
    11 alpha electrons       11 beta electrons
       nuclear repulsion energy        57.9366553887 Hartrees.
 NAtoms=    3 NActive=    3 NUniq=    3 SFac= 1.00D+00 NAtFMM=   60 NAOKFM=F Big=F
 Integral buffers will be    131072 words long.
 Raffenetti 2 integral format.
 Two-electron integral symmetry is turned on.
 One-electron integrals computed using PRISM.
 NBasis=    45 RedAO= T EigKep=  3.99D-03  NBF=    33    12
 NBsUse=    45 1.00D-06 EigRej= -1.00D+00 NBFU=    33    12
 Initial guess from the checkpoint file:  "/tmp/Gau-16048.chk"
 B after Tr=     0.000000    0.000000    0.000000
         Rot=    0.999994    0.000000    0.000000    0.003317 Ang=   0.38 deg.
 Initial guess orbital symmetries:
       Occupied  (A') (A') (A') (A') (A') (A') (A') (A') (A") (A")
                 (A')
       Virtual   (A') (A') (A') (A') (A') (A') (A') (A') (A') (A')
                 (A') (A') (A') (A') (A') (A') (A') (A') (A') (A')
                 (A') (A') (A') (A') (A") (A") (A") (A") (A") (A")
                 (A") (A") (A") (A")
 Keep R1 ints in memory in symmetry-blocked form, NReq=1431183.
 Requested convergence on RMS density matrix=1.00D-08 within 128 cycles.
 Requested convergence on MAX density matrix=1.00D-06.
 Requested convergence on             energy=1.00D-06.
 No special actions if energy rises.
 SCF Done:  E(RB3LYP) =  -188.580939386     A.U. after    8 cycles
            NFock=  8  Conv=0.15D-08     -V/T= 2.0089
 Calling FoFJK, ICntrl=      2127 FMM=F ISym2X=1 I1Cent= 0 IOpClX= 0 NMat=1 NMatS=1 NMatT=0.
 ***** Axes restored to original set *****
 -------------------------------------------------------------------
 Center     Atomic                   Forces (Hartrees/Bohr)
 Number     Number              X              Y              Z
 -------------------------------------------------------------------
      1        6           0.000066170    0.000006930   -0.000106394
      2        8           0.000043682   -0.000039158    0.000090403
      3        8          -0.000109852    0.000032229    0.000015991
 -------------------------------------------------------------------
 Cartesian Forces:  Max     0.000109852 RMS     0.000067266

 GradGradGradGradGradGradGradGradGradGradGradGradGradGradGradGradGradGrad
 Berny optimization.
 Search for a local minimum.
 Step number   9 out of a maximum of   20
 All quantities printed in internal units (Hartrees-Bohrs-Radians)
 Update second derivatives using D2CorN and points    4    5    7    6    8
                                                          9
 DE= -2.58D-06 DEPred=-2.30D-06 R= 1.12D+00
 TightC=F SS=  1.41D+00  RLast= 4.08D-03 DXNew= 6.1655D-01 1.2227D-02
 Trust test= 1.12D+00 RLast= 4.08D-03 DXMaxT set to 3.67D-01
 The second derivative matrix:
                          X1        Y1        Z1        X2        Y2
           X1           1.08147
           Y1          -0.15975   1.05229
           Z1           0.48713   0.00334   0.39187
           X2          -0.69653   0.31291  -0.29738   0.96986
           Y2           0.18525  -0.08714   0.09348  -0.02926   0.96345
           Z2           0.17156  -0.06268   0.02038   0.14434   0.17004
           X3          -0.29136   0.12786  -0.11324  -0.17975   0.12503
           Y3           0.25552  -0.12128   0.13292  -0.00264  -0.03244
           Z3          -0.58218   0.28908  -0.34970   0.22955  -0.03379
                          Z2        X3        Y3        Z3
           Z2           0.19885
           X3          -0.23939   0.56470
           Y3           0.12238   0.02813   0.99759
           Z3          -0.15669   0.42914  -0.02555   0.56893
 ITU=  1  0 -1  1  1  1  0  1  0
     Eigenvalues ---    0.19908   1.11691   2.07966
 RFO step:  Lambda=-7.73651048D-08 EMin= 1.99083926D-01
 ClnCor:  largest displacement from symmetrization is 2.44D-17 for atom     1.
 Quartic linear search produced a step of  0.11654.
 ClnCor:  largest displacement from symmetrization is 1.32D-12 for atom     2.
 TrRot= -0.000006 -0.000001  0.000010  0.000000  0.000000  0.000000
 Variable       Old X    -DE/DX   Delta X   Delta X   Delta X     New X
                                 (Linear)    (Quad)   (Total)
    X1        0.57282   0.00007   0.00018   0.00013   0.00030   0.57312
    Y1       -4.20955   0.00001   0.00003   0.00002   0.00005  -4.20950
    Z1       -3.09205  -0.00011  -0.00033  -0.00023  -0.00055  -3.09260
    X2        2.40719   0.00004  -0.00015   0.00008  -0.00008   2.40712
    Y2       -5.06226  -0.00004   0.00001  -0.00007  -0.00006  -5.06232
    Z2       -2.20377   0.00009   0.00014   0.00017   0.00031  -2.20345
    X3       -1.26068  -0.00011  -0.00002  -0.00019  -0.00022  -1.26091
    Y3       -3.35670   0.00003  -0.00005   0.00005   0.00001  -3.35669
    Z3       -3.98195   0.00002   0.00020   0.00003   0.00024  -3.98171
         Item               Value     Threshold  Converged?
 Maximum Force            0.000110     0.000450     YES
 RMS     Force            0.000067     0.000300     YES
 Maximum Displacement     0.000554     0.001800     YES
 RMS     Displacement     0.000261     0.001200     YES
 Predicted change in Energy=-6.740922D-08
 Optimization completed.
    -- Stationary point found.
 GradGradGradGradGradGradGradGradGradGradGradGradGradGradGradGradGradGrad

[...]
 --------------------------------------------------------------------
 1/10=4,29=7,30=1,38=1,40=1/1,3;
 2/12=2,40=1/2;
 3/5=1,6=6,7=1,11=2,14=-4,16=1,25=1,30=1,70=2,71=2,74=-5,75=-5,116=1,140=1/1,2,3;
 4/5=101/1;
 5/5=2,98=1/2;
 8/6=4,10=90,11=11/1;
 11/6=1,8=1,9=11,15=111,16=1/1,2,10;
 10/6=1/2;
 6/7=2,8=2,9=2,10=2,18=1,28=1/1;
 7/8=1,10=1,25=1/1,2,3,16;
 1/10=4,30=1/3;
 99//99;
 Structure from the checkpoint file:  "/tmp/Gau-16048.chk"
 -----
 Title
 -----
 Charge =  0 Multiplicity = 1
 No Z-Matrix found in file; cartesian coordinates used.
  C                                                 0.303123061348     -2.227600260083     -1.636239869085
  O                                                 1.273832284174     -2.678830438400     -1.166182801286
  O                                                -0.667125345578     -1.776289301518     -2.107157329638
 Recover connectivity data from disk.

 GradGradGradGradGradGradGradGradGradGradGradGradGradGradGradGradGradGrad
 Berny optimization.
 Initialization pass.
 Trust Radius=3.00D-01 FncErr=1.00D-07 GrdErr=1.00D-07
 Number of steps in this run=      2 maximum allowed number of steps=      2.
 GradGradGradGradGradGradGradGradGradGradGradGradGradGradGradGradGradGrad

                          Input orientation:                          
 ---------------------------------------------------------------------
 Center     Atomic      Atomic             Coordinates (Angstroms)
 Number     Number       Type             X           Y           Z
 ---------------------------------------------------------------------
      1          6           0        0.303123   -2.227600   -1.636240
      2          8           0        1.273832   -2.678830   -1.166183
      3          8           0       -0.667125   -1.776289   -2.107157
 ---------------------------------------------------------------------
                    Distance matrix (angstroms):
                    1          2          3
     1  C    0.000000
     2  O    1.169119   0.000000
     3  O    1.169114   2.338232   0.000000
 Stoichiometry    CO2
 Framework group  CS[SG(CO2)]
 Deg. of freedom     3
 Full point group                 CS      NOp   2
 Largest Abelian subgroup         CS      NOp   2
 Largest concise Abelian subgroup C1      NOp   1
                         Standard orientation:                         
 ---------------------------------------------------------------------
 Center     Atomic      Atomic             Coordinates (Angstroms)
 Number     Number       Type             X           Y           Z
 ---------------------------------------------------------------------
      1          6           0        0.000000    0.000356    0.000000
      2          8           0        1.169100   -0.006214    0.000000
      3          8           0       -1.169100    0.005946    0.000000
 ---------------------------------------------------------------------
 Rotational constants (GHZ):***************     11.5581937     11.5581932
 Standard basis: 6-31G(d) (6D, 7F)
 There are    33 symmetry adapted cartesian basis functions of A'  symmetry.
 There are    12 symmetry adapted cartesian basis functions of A"  symmetry.
 There are    33 symmetry adapted basis functions of A'  symmetry.
 There are    12 symmetry adapted basis functions of A"  symmetry.
    45 basis functions,    84 primitive gaussians,    45 cartesian basis functions
    11 alpha electrons       11 beta electrons
       nuclear repulsion energy        57.9366553887 Hartrees.
 NAtoms=    3 NActive=    3 NUniq=    3 SFac= 1.00D+00 NAtFMM=   60 NAOKFM=F Big=F
 Integral buffers will be    131072 words long.
 Raffenetti 2 integral format.
 Two-electron integral symmetry is turned on.
 One-electron integrals computed using PRISM.
 NBasis=    45 RedAO= T EigKep=  3.99D-03  NBF=    33    12
 NBsUse=    45 1.00D-06 EigRej= -1.00D+00 NBFU=    33    12
 Initial guess from the checkpoint file:  "/tmp/Gau-16048.chk"
 B after Tr=     0.000000    0.000000    0.000000
         Rot=    1.000000    0.000000    0.000000    0.000000 Ang=   0.00 deg.
 Initial guess orbital symmetries:
       Occupied  (A') (A') (A') (A') (A') (A') (A') (A') (A") (A")
                 (A')
       Virtual   (A') (A") (A') (A') (A') (A") (A') (A') (A') (A")
                 (A') (A') (A') (A") (A') (A") (A') (A") (A') (A')
                 (A") (A') (A') (A") (A') (A") (A') (A') (A") (A')
                 (A') (A') (A') (A')
 Keep R1 ints in memory in symmetry-blocked form, NReq=1431183.
 Requested convergence on RMS density matrix=1.00D-08 within 128 cycles.
 Requested convergence on MAX density matrix=1.00D-06.
 Requested convergence on             energy=1.00D-06.
 No special actions if energy rises.
 SCF Done:  E(RB3LYP) =  -188.580939386     A.U. after    1 cycles
            NFock=  1  Conv=0.19D-09     -V/T= 2.0089
 DoSCS=F DFT=T ScalE2(SS,OS)=  1.000000  1.000000
 Range of M.O.s used for correlation:     1    45
 NBasis=    45 NAE=    11 NBE=    11 NFC=     0 NFV=     0
 NROrb=     45 NOA=    11 NOB=    11 NVA=    34 NVB=    34
 Symmetrizing basis deriv contribution to polar:
 IMax=3 JMax=2 DiffMx= 0.00D+00
 G2DrvN: will do     4 centers at a time, making    1 passes.
 Calling FoFCou, ICntrl=  3107 FMM=F I1Cent=   0 AccDes= 0.00D+00.
 End of G2Drv F.D. properties file   721 does not exist.
 End of G2Drv F.D. properties file   722 does not exist.
 End of G2Drv F.D. properties file   788 does not exist.
          IDoAtm=111
          Differentiating once with respect to electric field.
                with respect to dipole field.
          Differentiating once with respect to nuclear coordinates.
 Keep R1 ints in memory in symmetry-blocked form, NReq=1404065.
          There are    12 degrees of freedom in the 1st order CPHF.  IDoFFX=6 NUNeed=     3.
      9 vectors produced by pass  0 Test12= 3.12D-15 8.33D-09 XBig12= 2.64D+01 3.45D+00.
 AX will form     9 AO Fock derivatives at one time.
      9 vectors produced by pass  1 Test12= 3.12D-15 8.33D-09 XBig12= 9.63D+00 1.31D+00.
      9 vectors produced by pass  2 Test12= 3.12D-15 8.33D-09 XBig12= 3.76D-02 6.59D-02.
      9 vectors produced by pass  3 Test12= 3.12D-15 8.33D-09 XBig12= 1.35D-04 4.29D-03.
      9 vectors produced by pass  4 Test12= 3.12D-15 8.33D-09 XBig12= 1.60D-07 1.49D-04.
      8 vectors produced by pass  5 Test12= 3.12D-15 8.33D-09 XBig12= 8.55D-11 3.17D-06.
      3 vectors produced by pass  6 Test12= 3.12D-15 8.33D-09 XBig12= 4.96D-14 7.97D-08.
 InvSVY:  IOpt=1 It=  1 EMax= 9.99D-16
 Solved reduced A of dimension    56 with     9 vectors.
 Isotropic polarizability for W=    0.000000       12.48 Bohr**3.
 End of Minotr F.D. properties file   721 does not exist.
 End of Minotr F.D. properties file   722 does not exist.
 End of Minotr F.D. properties file   788 does not exist.

 **********************************************************************

            Population analysis using the SCF density.

 **********************************************************************

 Orbital symmetries:
       Occupied  (A') (A') (A') (A') (A') (A') (A') (A') (A") (A")
                 (A')
       Virtual   (A') (A") (A') (A') (A') (A") (A') (A') (A') (A")
                 (A') (A') (A') (A") (A') (A") (A') (A") (A') (A')
                 (A") (A') (A') (A") (A') (A") (A') (A') (A") (A')
                 (A') (A') (A') (A')
 The electronic state is 1-A'.
 Alpha  occ. eigenvalues --  -19.23658 -19.23658 -10.38528  -1.16100  -1.11966
 Alpha  occ. eigenvalues --   -0.56233  -0.51655  -0.51278  -0.51278  -0.36997
 Alpha  occ. eigenvalues --   -0.36997
 Alpha virt. eigenvalues --    0.02994   0.02995   0.08436   0.36575   0.47260
 Alpha virt. eigenvalues --    0.47260   0.58438   0.73529   0.78154   0.87420
 Alpha virt. eigenvalues --    0.87420   1.03782   1.04167   1.04167   1.37745
 Alpha virt. eigenvalues --    1.39386   1.39386   1.40644   1.40644   1.72627
 Alpha virt. eigenvalues --    1.72627   1.83354   2.02765   2.02765   2.12112
 Alpha virt. eigenvalues --    2.12112   2.72089   2.91528   2.95408   2.95408
 Alpha virt. eigenvalues --    3.04939   3.74176   4.38903   4.45005
          Condensed to atoms (all electrons):
               1          2          3
     1  C    4.105448   0.587543   0.587547
     2  O    0.587543   7.793832  -0.021642
     3  O    0.587547  -0.021642   7.793824
 Mulliken charges:
               1
     1  C    0.719462
     2  O   -0.359733
     3  O   -0.359728
 Sum of Mulliken charges =   0.00000
 Mulliken charges with hydrogens summed into heavy atoms:
               1
     1  C    0.719462
     2  O   -0.359733
     3  O   -0.359728
 APT charges:
               1
     1  C    1.086445
     2  O   -0.543222
     3  O   -0.543223
 Sum of APT charges =   0.00000
 APT charges with hydrogens summed into heavy atoms:
               1
     1  C    1.086445
     2  O   -0.543222
     3  O   -0.543223
 Electronic spatial extent (au):  <R**2>=            113.6464
 Charge=              0.0000 electrons
 Dipole moment (field-independent basis, Debye):
    X=              0.0000    Y=              0.0012    Z=              0.0000  Tot=              0.0012
 Quadrupole moment (field-independent basis, Debye-Ang):
   XX=            -18.9141   YY=            -14.4507   ZZ=            -14.4506
   XY=              0.0232   XZ=              0.0000   YZ=              0.0000
 Traceless Quadrupole moment (field-independent basis, Debye-Ang):
   XX=             -2.9756   YY=              1.4878   ZZ=              1.4879
   XY=              0.0232   XZ=              0.0000   YZ=              0.0000
 Octapole moment (field-independent basis, Debye-Ang**2):
  XXX=             -0.0001  YYY=             -0.0006  ZZZ=              0.0000  XYY=              0.0000
  XXY=             -0.0012  XXZ=              0.0000  XZZ=              0.0000  YZZ=             -0.0002
  YYZ=              0.0000  XYZ=              0.0000
 Hexadecapole moment (field-independent basis, Debye-Ang**3):
 XXXX=           -100.4854 YYYY=            -10.3584 ZZZZ=            -10.3561 XXXY=              0.2407
 XXXZ=              0.0000 YYYX=              0.2281 YYYZ=              0.0000 ZZZX=              0.0000
 ZZZY=              0.0000 XXYY=            -18.0701 XXZZ=            -18.0696 YYZZ=             -3.4524
 XXYZ=              0.0000 YYXZ=              0.0000 ZZXY=              0.0760
 N-N= 5.793665538874D+01 E-N=-5.588956113681D+02  KE= 1.869165110156D+02
 Symmetry A'   KE= 1.784082996275D+02
 Symmetry A"   KE= 8.508211388148D+00
  Exact polarizability:  22.073  -0.075   7.689   0.000   0.000   7.688
 Approx polarizability:  46.772  -0.192   9.915   0.000   0.000   9.914
 Calling FoFJK, ICntrl=    100127 FMM=F ISym2X=1 I1Cent= 0 IOpClX= 0 NMat=1 NMatS=1 NMatT=0.
 Full mass-weighted force constant matrix:
 Low frequencies ---   -8.4120   -8.4103   -0.0019   -0.0018   -0.0014  639.8965
 Low frequencies ---  639.8967 1372.2285 2436.6620
 Diagonal vibrational polarizability:
        2.4742467       2.0190921       0.0000000
 Harmonic frequencies (cm**-1), IR intensities (KM/Mole), Raman scattering
 activities (A**4/AMU), depolarization ratios for plane and unpolarized
 incident light, reduced masses (AMU), force constants (mDyne/A),
 and normal coordinates:
                      1                      2                      3
                     A'                     A'                     A'
 Frequencies --    639.8967              1372.2285              2436.6620
 Red. masses --     12.8774                15.9949                12.8774
 Frc consts  --      3.1067                17.7454                45.0472
 IR Inten    --     30.7213                 0.0000               545.8868
  Atom  AN      X      Y      Z        X      Y      Z        X      Y      Z
     1   6     0.00   0.88   0.00     0.00   0.00   0.00     0.88   0.00   0.00
     2   8     0.00  -0.33   0.00     0.71   0.00   0.00    -0.33   0.00   0.00
     3   8     0.00  -0.33   0.00    -0.71   0.00   0.00    -0.33   0.00   0.00

 -------------------
 - Thermochemistry -
 -------------------
 Temperature   298.150 Kelvin.  Pressure   1.00000 Atm.
 Atom     1 has atomic number  6 and mass  12.00000
 Atom     2 has atomic number  8 and mass  15.99491
 Atom     3 has atomic number  8 and mass  15.99491
 Molecular mass:    43.98983 amu.
 Principal axes and moments of inertia in atomic units:
                           1         2         3
     Eigenvalues --     0.00001 156.14388 156.14389
           X            0.99999   0.00520   0.00000
           Y           -0.00520   0.99999   0.00000
           Z            0.00000   0.00000   1.00000
 This molecule is an asymmetric top.
 Rotational symmetry number  1.
 Rotational temperatures (Kelvin) ************     0.55471     0.55471
 Rotational constants (GHZ):      ************    11.55819    11.55819
 Zero-point vibrational energy      26609.7 (Joules/Mol)
                                    6.35986 (Kcal/Mol)
 Vibrational temperatures:    920.67  1974.33  3505.81
          (Kelvin)
 
 Zero-point correction=                           0.010135 (Hartree/Particle)
 Thermal correction to Energy=                    0.013115
 Thermal correction to Enthalpy=                  0.014060
 Thermal correction to Gibbs Free Energy=        -0.006745
 Sum of electronic and zero-point Energies=           -188.570804
 Sum of electronic and thermal Energies=              -188.567824
 Sum of electronic and thermal Enthalpies=            -188.566880
 Sum of electronic and thermal Free Energies=         -188.587685
 
                     E (Thermal)             CV                S
                      KCal/Mol        Cal/Mol-Kelvin    Cal/Mol-Kelvin
 Total                    8.230              7.029             43.788
 Electronic               0.000              0.000              0.000
 Translational            0.889              2.981             37.270
 Rotational               0.889              2.981              6.111
 Vibrational              6.453              1.067              0.406
                       Q            Log10(Q)             Ln(Q)
 Total Bot       0.126656D+04          3.102627          7.144063
 Total V=0       0.581342D+08          7.764432         17.878265
 Vib (Bot)       0.228583D-04         -4.640955        -10.686194
 Vib (V=0)       0.104918D+01          0.020850          0.048008
 Electronic      0.100000D+01          0.000000          0.000000
 Translational   0.114679D+08          7.059484         16.255062
 Rotational      0.483169D+01          0.684099          1.575195
 ***** Axes restored to original set *****
 -------------------------------------------------------------------
 Center     Atomic                   Forces (Hartrees/Bohr)
 Number     Number              X              Y              Z
 -------------------------------------------------------------------
      1        6           0.000066169    0.000006931   -0.000106397
      2        8           0.000043681   -0.000039158    0.000090403
      3        8          -0.000109850    0.000032227    0.000015993
 -------------------------------------------------------------------
 Cartesian Forces:  Max     0.000109850 RMS     0.000067266

 GradGradGradGradGradGradGradGradGradGradGradGradGradGradGradGradGradGrad
 Berny optimization.
 Search for a local minimum.
 Step number   1 out of a maximum of    2
 All quantities printed in internal units (Hartrees-Bohrs-Radians)
 Second derivative matrix not updated -- analytic derivatives used.
 The second derivative matrix:
                          X1        Y1        Z1        X2        Y2
           X1           1.39312
           Y1          -0.58492   0.40721
           Z1           0.60983  -0.28357   0.43087
           X2          -0.69682   0.29250  -0.30475   0.74122
           Y2           0.29248  -0.20358   0.14166  -0.32887   0.18667
           Z2          -0.30469   0.14164  -0.21519   0.34265  -0.15929
           X3          -0.69631   0.29242  -0.30508  -0.04441   0.03639
           Y3           0.29244  -0.20363   0.14191   0.03637   0.01691
           Z3          -0.30514   0.14193  -0.21568  -0.03789   0.01762
                          Z2        X3        Y3        Z3
           Z2           0.19975
           X3          -0.03796   0.74071
           Y3           0.01765  -0.32881   0.18672
           Z3           0.01544   0.34304  -0.15955   0.20024
 ITU=  0
     Eigenvalues ---    0.20195   1.13979   2.92833
 Angle between quadratic step and forces=  32.13 degrees.
 ClnCor:  largest displacement from symmetrization is 7.02D-17 for atom     1.
 Linear search not attempted -- first point.
 ClnCor:  largest displacement from symmetrization is 2.75D-15 for atom     3.
 TrRot= -0.000014 -0.000002  0.000025  0.000000  0.000000  0.000000
 Variable       Old X    -DE/DX   Delta X   Delta X   Delta X     New X
                                 (Linear)    (Quad)   (Total)
    X1        0.57282   0.00007   0.00000   0.00030   0.00029   0.57311
    Y1       -4.20955   0.00001   0.00000   0.00005   0.00005  -4.20950
    Z1       -3.09205  -0.00011   0.00000  -0.00057  -0.00054  -3.09259
    X2        2.40719   0.00004   0.00000  -0.00006  -0.00008   2.40712
    Y2       -5.06226  -0.00004   0.00000  -0.00005  -0.00006  -5.06231
    Z2       -2.20377   0.00009   0.00000   0.00028   0.00030  -2.20346
    X3       -1.26068  -0.00011   0.00000  -0.00020  -0.00021  -1.26090
    Y3       -3.35670   0.00003   0.00000   0.00001   0.00001  -3.35669
    Z3       -3.98195   0.00002   0.00000   0.00021   0.00024  -3.98171
         Item               Value     Threshold  Converged?
 Maximum Force            0.000110     0.000450     YES
 RMS     Force            0.000067     0.000300     YES
 Maximum Displacement     0.000542     0.001800     YES
 RMS     Displacement     0.000255     0.001200     YES
 Predicted change in Energy=-6.546660D-08
 Optimization completed.
    -- Stationary point found.
 GradGradGradGradGradGradGradGradGradGradGradGradGradGradGradGradGradGrad

 1\1\GINC-C-0-1\Freq\RB3LYP\6-31G(d)\C1O2\TY13946\08-Feb-2018\0\\#N Geo
 m=AllCheck Guess=TCheck SCRF=Check GenChk RB3LYP/6-31G(d) Freq\\Title\
 \0,1\C,0.3031230613,-2.2276002601,-1.6362398691\O,1.2738322842,-2.6788
 304384,-1.1661828013\O,-0.6671253456,-1.7762893015,-2.1071573296\\Vers
 ion=AS64L-G09RevD.01\State=1-A'\HF=-188.5809394\RMSD=1.877e-10\RMSF=6.
 727e-05\ZeroPoint=0.0101351\Thermal=0.0131154\Dipole=-0.0002351,-0.000
 0369,0.0004231\DipoleDeriv=1.6862435,-0.5402537,0.5632603,-0.5402535,0
 .7756197,-0.2619148,0.5632595,-0.2619145,0.7974708,-0.8431861,0.270201
 1,-0.2818265,0.2700675,-0.3878051,0.1310059,-0.2813356,0.1308424,-0.39
 86752,-0.8430575,0.2700526,-0.2814338,0.270186,-0.3878145,0.1309089,-0
 .2819238,0.1310721,-0.3987956\Polar=17.6006497,-4.6092196,9.8315788,4.
 8054938,-2.2345451,10.0180036\PG=CS [SG(C1O2)]\NImag=0\\1.39312205,-0.
 58492020,0.40721008,0.60982823,-0.28356893,0.43086800,-0.69681623,0.29
 250056,-0.30475301,0.74122183,0.29248223,-0.20358139,0.14166320,-0.328
 86951,0.18666986,-0.30468568,0.14164078,-0.21518763,0.34264656,-0.1592
 8806,0.19974745,-0.69630582,0.29241964,-0.30507522,-0.04440560,0.03638
 728,-0.03796088,0.74071142,0.29243797,-0.20362869,0.14190573,0.0363689
 5,0.01691152,0.01764729,-0.32880691,0.18671717,-0.30514255,0.14192815,
 -0.21568037,-0.03789355,0.01762486,0.01544018,0.34303610,-0.15955302,0
 .20024019\\-0.00006617,-0.00000693,0.00010640,-0.00004368,0.00003916,-
 0.00009040,0.00010985,-0.00003223,-0.00001599\\\@


 EVANS BOLDLY PUT 50 ATM. OF ETHYLENE IN A CELL WITH 25 ATM. OF OXYGEN.
 THE APPARATUS SUBSEQUENTLY BLEW UP, BUT LUCKILY NOT BEFORE HE
 OBTAINED THE SPECTRA SHOWN IN FIGURE 8.
 A.J.MERER AND R.S.MULLIKEN, CHEM.REV. 69, 645 (1969)
 Job cpu time:       0 days  0 hours  0 minutes 13.5 seconds.
 File lengths (MBytes):  RWF=      5 Int=      0 D2E=      0 Chk=      1 Scr=      1
 Normal termination of Gaussian 09 at Thu Feb  8 15:26:48 2018.
