 Entering Gaussian System, Link 0=g09
 Input=cubane.gjf
 Output=cubane.log
 Initial command:
 /share/apps/g09/l1.exe "/tmp/Gau-6798.inp" -scrdir="/tmp/"
 Entering Link 1 = /share/apps/g09/l1.exe PID=      6799.
  
 Copyright (c) 1988,1990,1992,1993,1995,1998,2003,2009,2013,
            Gaussian, Inc.  All Rights Reserved.
  
 This is part of the Gaussian(R) 09 program.  It is based on
 the Gaussian(R) 03 system (copyright 2003, Gaussian, Inc.),
 the Gaussian(R) 98 system (copyright 1998, Gaussian, Inc.),
 the Gaussian(R) 94 system (copyright 1995, Gaussian, Inc.),
 the Gaussian 92(TM) system (copyright 1992, Gaussian, Inc.),
 the Gaussian 90(TM) system (copyright 1990, Gaussian, Inc.),
 the Gaussian 88(TM) system (copyright 1988, Gaussian, Inc.),
 the Gaussian 86(TM) system (copyright 1986, Carnegie Mellon
 University), and the Gaussian 82(TM) system (copyright 1983,
 Carnegie Mellon University). Gaussian is a federally registered
 trademark of Gaussian, Inc.
  
 This software contains proprietary and confidential information,
 including trade secrets, belonging to Gaussian, Inc.
  
 This software is provided under written license and may be
 used, copied, transmitted, or stored only in accord with that
 written license.
  
 The following legend is applicable only to US Government
 contracts under FAR:
  
                    RESTRICTED RIGHTS LEGEND
  
 Use, reproduction and disclosure by the US Government is
 subject to restrictions as set forth in subparagraphs (a)
 and (c) of the Commercial Computer Software - Restricted
 Rights clause in FAR 52.227-19.
  
 Gaussian, Inc.
 340 Quinnipiac St., Bldg. 40, Wallingford CT 06492
  
  
 ---------------------------------------------------------------
 Warning -- This program may not be used in any manner that
 competes with the business of Gaussian, Inc. or will provide
 assistance to any competitor of Gaussian, Inc.  The licensee
 of this program is prohibited from giving any competitor of
 Gaussian, Inc. access to this program.  By using this program,
 the user acknowledges that Gaussian, Inc. is engaged in the
 business of creating and licensing software in the field of
 computational chemistry and represents and warrants to the
 licensee that it is not a competitor of Gaussian, Inc. and that
 it will not use this program in any manner prohibited above.
 ---------------------------------------------------------------
  

 Cite this work as:
 Gaussian 09, Revision D.01,
 M. J. Frisch, G. W. Trucks, H. B. Schlegel, G. E. Scuseria, 
 M. A. Robb, J. R. Cheeseman, G. Scalmani, V. Barone, B. Mennucci, 
 G. A. Petersson, H. Nakatsuji, M. Caricato, X. Li, H. P. Hratchian, 
 A. F. Izmaylov, J. Bloino, G. Zheng, J. L. Sonnenberg, M. Hada, 
 M. Ehara, K. Toyota, R. Fukuda, J. Hasegawa, M. Ishida, T. Nakajima, 
 Y. Honda, O. Kitao, H. Nakai, T. Vreven, J. A. Montgomery, Jr., 
 J. E. Peralta, F. Ogliaro, M. Bearpark, J. J. Heyd, E. Brothers, 
 K. N. Kudin, V. N. Staroverov, T. Keith, R. Kobayashi, J. Normand, 
 K. Raghavachari, A. Rendell, J. C. Burant, S. S. Iyengar, J. Tomasi, 
 M. Cossi, N. Rega, J. M. Millam, M. Klene, J. E. Knox, J. B. Cross, 
 V. Bakken, C. Adamo, J. Jaramillo, R. Gomperts, R. E. Stratmann, 
 O. Yazyev, A. J. Austin, R. Cammi, C. Pomelli, J. W. Ochterski, 
 R. L. Martin, K. Morokuma, V. G. Zakrzewski, G. A. Voth, 
 P. Salvador, J. J. Dannenberg, S. Dapprich, A. D. Daniels, 
 O. Farkas, J. B. Foresman, J. V. Ortiz, J. Cioslowski, 
 and D. J. Fox, Gaussian, Inc., Wallingford CT, 2013.
 
 ******************************************
 Gaussian 09:  AS64L-G09RevD.01 24-Apr-2013
                 8-Feb-2018 
 ******************************************
 -------------------------------------------------
 # opt freq b3lyp/6-31(d) Integral(Grid=UltraFine)
 -------------------------------------------------
 1/14=-1,18=20,19=15,26=4,38=1/1,3;
 2/9=110,12=2,17=6,18=5,40=1/2;
 3/5=1,6=6,7=1,11=2,16=1,25=1,30=1,71=1,74=-5,75=-5/1,2,3;
 4//1;
 5/5=2,38=5/2;
 6/7=2,8=2,9=2,10=2,28=1/1;
 7//1,2,3,16;
 1/14=-1,18=20,19=15,26=4/3(2);
 2/9=110/2;
 99//99;
 2/9=110/2;
 3/5=1,6=6,7=1,11=2,16=1,25=1,30=1,71=1,74=-5,75=-5/1,2,3;
 4/5=5,16=3,69=1/1;
 5/5=2,38=5/2;
 7//1,2,3,16;
 1/14=-1,18=20,19=15,26=4/3(-5);
 2/9=110/2;
 6/7=2,8=2,9=2,10=2,19=2,28=1/1;
 99/9=1/99;
 -----
 Title
 -----
 Symbolic Z-matrix:
 Charge =  0 Multiplicity = 1
 C                    -2.5878    0.47561  -0.0957 
 C                    -2.38444  -1.0162   -0.40864 
 C                    -1.16321   0.52558   0.51527 
 C                    -0.98349  -0.9834    0.21682 
 C                    -1.68697   0.17608   1.91472 
 H                    -0.29387   1.15375   0.22652 
 C                    -2.93803  -1.37029   0.99615 
 H                    -2.78852  -1.70429  -1.18018 
 C                    -1.53836  -1.32661   1.6238 
 H                    -0.00423  -1.24434  -0.2378 
 H                    -0.95684  -2.14863   2.09083 
 C                    -3.11284   0.13699   1.30594 
 H                    -3.81298  -1.99651   1.27186 
 H                    -1.66662   0.78796   2.84057 
 H                    -2.7856    1.37384  -0.71704 
 H                    -4.08647   0.39594   1.77361 
 

 GradGradGradGradGradGradGradGradGradGradGradGradGradGradGradGradGradGrad
 Berny optimization.
 Initialization pass.
                           ----------------------------
                           !    Initial Parameters    !
                           ! (Angstroms and Degrees)  !
 --------------------------                            --------------------------
 ! Name  Definition              Value          Derivative Info.                !
 --------------------------------------------------------------------------------
 ! R1    R(1,2)                  1.5378         estimate D2E/DX2                !
 ! R2    R(1,3)                  1.5509         estimate D2E/DX2                !
 ! R3    R(1,12)                 1.5346         estimate D2E/DX2                !
 ! R4    R(1,15)                 1.11           estimate D2E/DX2                !
 ! R5    R(2,4)                  1.5346         estimate D2E/DX2                !
 ! R6    R(2,7)                  1.5509         estimate D2E/DX2                !
 ! R7    R(2,8)                  1.11           estimate D2E/DX2                !
 ! R8    R(3,4)                  1.5487         estimate D2E/DX2                !
 ! R9    R(3,5)                  1.5346         estimate D2E/DX2                !
 ! R10   R(3,6)                  1.1107         estimate D2E/DX2                !
 ! R11   R(4,9)                  1.5509         estimate D2E/DX2                !
 ! R12   R(4,10)                 1.1107         estimate D2E/DX2                !
 ! R13   R(5,9)                  1.5378         estimate D2E/DX2                !
 ! R14   R(5,12)                 1.5509         estimate D2E/DX2                !
 ! R15   R(5,14)                 1.11           estimate D2E/DX2                !
 ! R16   R(7,9)                  1.5346         estimate D2E/DX2                !
 ! R17   R(7,12)                 1.5487         estimate D2E/DX2                !
 ! R18   R(7,13)                 1.1107         estimate D2E/DX2                !
 ! R19   R(9,11)                 1.11           estimate D2E/DX2                !
 ! R20   R(12,16)                1.1107         estimate D2E/DX2                !
 ! A1    A(2,1,3)               89.4243         estimate D2E/DX2                !
 ! A2    A(2,1,12)              90.9772         estimate D2E/DX2                !
 ! A3    A(2,1,15)             134.0035         estimate D2E/DX2                !
 ! A4    A(3,1,12)              87.7973         estimate D2E/DX2                !
 ! A5    A(3,1,15)             110.9864         estimate D2E/DX2                !
 ! A6    A(12,1,15)            128.9684         estimate D2E/DX2                !
 ! A7    A(1,2,4)               90.9769         estimate D2E/DX2                !
 ! A8    A(1,2,7)               89.4244         estimate D2E/DX2                !
 ! A9    A(1,2,8)              134.0031         estimate D2E/DX2                !
 ! A10   A(4,2,7)               87.7973         estimate D2E/DX2                !
 ! A11   A(4,2,8)              128.9694         estimate D2E/DX2                !
 ! A12   A(7,2,8)              110.9858         estimate D2E/DX2                !
 ! A13   A(1,3,4)               89.959          estimate D2E/DX2                !
 ! A14   A(1,3,5)               92.2013         estimate D2E/DX2                !
 ! A15   A(1,3,6)              129.4012         estimate D2E/DX2                !
 ! A16   A(4,3,5)               89.6241         estimate D2E/DX2                !
 ! A17   A(4,3,6)              114.2127         estimate D2E/DX2                !
 ! A18   A(5,3,6)              129.2722         estimate D2E/DX2                !
 ! A19   A(2,4,3)               89.6235         estimate D2E/DX2                !
 ! A20   A(2,4,9)               92.2011         estimate D2E/DX2                !
 ! A21   A(2,4,10)             129.2735         estimate D2E/DX2                !
 ! A22   A(3,4,9)               89.9586         estimate D2E/DX2                !
 ! A23   A(3,4,10)             114.2108         estimate D2E/DX2                !
 ! A24   A(9,4,10)             129.402          estimate D2E/DX2                !
 ! A25   A(3,5,9)               90.9767         estimate D2E/DX2                !
 ! A26   A(3,5,12)              87.7971         estimate D2E/DX2                !
 ! A27   A(3,5,14)             128.9669         estimate D2E/DX2                !
 ! A28   A(9,5,12)              89.4247         estimate D2E/DX2                !
 ! A29   A(9,5,14)             134.0042         estimate D2E/DX2                !
 ! A30   A(12,5,14)            110.9883         estimate D2E/DX2                !
 ! A31   A(2,7,9)               92.2011         estimate D2E/DX2                !
 ! A32   A(2,7,12)              89.9583         estimate D2E/DX2                !
 ! A33   A(2,7,13)             129.4009         estimate D2E/DX2                !
 ! A34   A(9,7,12)              89.6239         estimate D2E/DX2                !
 ! A35   A(9,7,13)             129.2719         estimate D2E/DX2                !
 ! A36   A(12,7,13)            114.2144         estimate D2E/DX2                !
 ! A37   A(4,9,5)               89.4244         estimate D2E/DX2                !
 ! A38   A(4,9,7)               87.7975         estimate D2E/DX2                !
 ! A39   A(4,9,11)             110.9878         estimate D2E/DX2                !
 ! A40   A(5,9,7)               90.9768         estimate D2E/DX2                !
 ! A41   A(5,9,11)             134.0045         estimate D2E/DX2                !
 ! A42   A(7,9,11)             128.9668         estimate D2E/DX2                !
 ! A43   A(1,12,5)              92.2013         estimate D2E/DX2                !
 ! A44   A(1,12,7)              89.6239         estimate D2E/DX2                !
 ! A45   A(1,12,16)            129.2746         estimate D2E/DX2                !
 ! A46   A(5,12,7)              89.9584         estimate D2E/DX2                !
 ! A47   A(5,12,16)            129.4018         estimate D2E/DX2                !
 ! A48   A(7,12,16)            114.2092         estimate D2E/DX2                !
 ! D1    D(3,1,2,4)              0.9694         estimate D2E/DX2                !
 ! D2    D(3,1,2,7)             88.7564         estimate D2E/DX2                !
 ! D3    D(3,1,2,8)           -152.02           estimate D2E/DX2                !
 ! D4    D(12,1,2,4)           -86.8177         estimate D2E/DX2                !
 ! D5    D(12,1,2,7)             0.9694         estimate D2E/DX2                !
 ! D6    D(12,1,2,8)           120.1929         estimate D2E/DX2                !
 ! D7    D(15,1,2,4)           120.1939         estimate D2E/DX2                !
 ! D8    D(15,1,2,7)          -152.019          estimate D2E/DX2                !
 ! D9    D(15,1,2,8)           -32.7955         estimate D2E/DX2                !
 ! D10   D(2,1,3,4)             -0.9604         estimate D2E/DX2                !
 ! D11   D(2,1,3,5)            -90.5827         estimate D2E/DX2                !
 ! D12   D(2,1,3,6)            121.0562         estimate D2E/DX2                !
 ! D13   D(12,1,3,4)            90.0396         estimate D2E/DX2                !
 ! D14   D(12,1,3,5)             0.4174         estimate D2E/DX2                !
 ! D15   D(12,1,3,6)          -147.9437         estimate D2E/DX2                !
 ! D16   D(15,1,3,4)          -138.7125         estimate D2E/DX2                !
 ! D17   D(15,1,3,5)           131.6652         estimate D2E/DX2                !
 ! D18   D(15,1,3,6)           -16.6959         estimate D2E/DX2                !
 ! D19   D(2,1,12,5)            88.9732         estimate D2E/DX2                !
 ! D20   D(2,1,12,7)            -0.9707         estimate D2E/DX2                !
 ! D21   D(2,1,12,16)         -122.5963         estimate D2E/DX2                !
 ! D22   D(3,1,12,5)            -0.413          estimate D2E/DX2                !
 ! D23   D(3,1,12,7)           -90.357          estimate D2E/DX2                !
 ! D24   D(3,1,12,16)          148.0175         estimate D2E/DX2                !
 ! D25   D(15,1,12,5)         -115.8725         estimate D2E/DX2                !
 ! D26   D(15,1,12,7)          154.1836         estimate D2E/DX2                !
 ! D27   D(15,1,12,16)          32.558          estimate D2E/DX2                !
 ! D28   D(1,2,4,3)             -0.9707         estimate D2E/DX2                !
 ! D29   D(1,2,4,9)             88.9733         estimate D2E/DX2                !
 ! D30   D(1,2,4,10)          -122.5976         estimate D2E/DX2                !
 ! D31   D(7,2,4,3)            -90.3571         estimate D2E/DX2                !
 ! D32   D(7,2,4,9)             -0.413          estimate D2E/DX2                !
 ! D33   D(7,2,4,10)           148.0161         estimate D2E/DX2                !
 ! D34   D(8,2,4,3)            154.184          estimate D2E/DX2                !
 ! D35   D(8,2,4,9)           -115.872          estimate D2E/DX2                !
 ! D36   D(8,2,4,10)            32.5571         estimate D2E/DX2                !
 ! D37   D(1,2,7,9)            -90.5824         estimate D2E/DX2                !
 ! D38   D(1,2,7,12)            -0.9604         estimate D2E/DX2                !
 ! D39   D(1,2,7,13)           121.0578         estimate D2E/DX2                !
 ! D40   D(4,2,7,9)              0.4174         estimate D2E/DX2                !
 ! D41   D(4,2,7,12)            90.0394         estimate D2E/DX2                !
 ! D42   D(4,2,7,13)          -147.9424         estimate D2E/DX2                !
 ! D43   D(8,2,7,9)            131.6661         estimate D2E/DX2                !
 ! D44   D(8,2,7,12)          -138.7119         estimate D2E/DX2                !
 ! D45   D(8,2,7,13)           -16.6937         estimate D2E/DX2                !
 ! D46   D(1,3,4,2)              0.9624         estimate D2E/DX2                !
 ! D47   D(1,3,4,9)            -91.239          estimate D2E/DX2                !
 ! D48   D(1,3,4,10)           134.6821         estimate D2E/DX2                !
 ! D49   D(5,3,4,2)             93.164          estimate D2E/DX2                !
 ! D50   D(5,3,4,9)              0.9626         estimate D2E/DX2                !
 ! D51   D(5,3,4,10)          -133.1163         estimate D2E/DX2                !
 ! D52   D(6,3,4,2)           -133.1166         estimate D2E/DX2                !
 ! D53   D(6,3,4,9)            134.682          estimate D2E/DX2                !
 ! D54   D(6,3,4,10)             0.6031         estimate D2E/DX2                !
 ! D55   D(1,3,5,9)             88.9735         estimate D2E/DX2                !
 ! D56   D(1,3,5,12)            -0.413          estimate D2E/DX2                !
 ! D57   D(1,3,5,14)          -115.8743         estimate D2E/DX2                !
 ! D58   D(4,3,5,9)             -0.9709         estimate D2E/DX2                !
 ! D59   D(4,3,5,12)           -90.3575         estimate D2E/DX2                !
 ! D60   D(4,3,5,14)           154.1812         estimate D2E/DX2                !
 ! D61   D(6,3,5,9)           -122.6003         estimate D2E/DX2                !
 ! D62   D(6,3,5,12)           148.0131         estimate D2E/DX2                !
 ! D63   D(6,3,5,14)            32.5519         estimate D2E/DX2                !
 ! D64   D(2,4,9,5)            -90.5823         estimate D2E/DX2                !
 ! D65   D(2,4,9,7)              0.4174         estimate D2E/DX2                !
 ! D66   D(2,4,9,11)           131.6639         estimate D2E/DX2                !
 ! D67   D(3,4,9,5)             -0.9606         estimate D2E/DX2                !
 ! D68   D(3,4,9,7)             90.0391         estimate D2E/DX2                !
 ! D69   D(3,4,9,11)          -138.7144         estimate D2E/DX2                !
 ! D70   D(10,4,9,5)           121.0534         estimate D2E/DX2                !
 ! D71   D(10,4,9,7)          -147.9469         estimate D2E/DX2                !
 ! D72   D(10,4,9,11)          -16.7004         estimate D2E/DX2                !
 ! D73   D(3,5,9,4)              0.9696         estimate D2E/DX2                !
 ! D74   D(3,5,9,7)            -86.8177         estimate D2E/DX2                !
 ! D75   D(3,5,9,11)           120.1967         estimate D2E/DX2                !
 ! D76   D(12,5,9,4)            88.7564         estimate D2E/DX2                !
 ! D77   D(12,5,9,7)             0.9692         estimate D2E/DX2                !
 ! D78   D(12,5,9,11)         -152.0165         estimate D2E/DX2                !
 ! D79   D(14,5,9,4)          -152.0155         estimate D2E/DX2                !
 ! D80   D(14,5,9,7)           120.1972         estimate D2E/DX2                !
 ! D81   D(14,5,9,11)          -32.7884         estimate D2E/DX2                !
 ! D82   D(3,5,12,1)             0.4174         estimate D2E/DX2                !
 ! D83   D(3,5,12,7)            90.0394         estimate D2E/DX2                !
 ! D84   D(3,5,12,16)         -147.949          estimate D2E/DX2                !
 ! D85   D(9,5,12,1)           -90.5822         estimate D2E/DX2                !
 ! D86   D(9,5,12,7)            -0.9602         estimate D2E/DX2                !
 ! D87   D(9,5,12,16)          121.0514         estimate D2E/DX2                !
 ! D88   D(14,5,12,1)          131.664          estimate D2E/DX2                !
 ! D89   D(14,5,12,7)         -138.714          estimate D2E/DX2                !
 ! D90   D(14,5,12,16)         -16.7024         estimate D2E/DX2                !
 ! D91   D(2,7,9,4)             -0.413          estimate D2E/DX2                !
 ! D92   D(2,7,9,5)             88.9733         estimate D2E/DX2                !
 ! D93   D(2,7,9,11)          -115.8739         estimate D2E/DX2                !
 ! D94   D(12,7,9,4)           -90.3568         estimate D2E/DX2                !
 ! D95   D(12,7,9,5)            -0.9705         estimate D2E/DX2                !
 ! D96   D(12,7,9,11)          154.1823         estimate D2E/DX2                !
 ! D97   D(13,7,9,4)           148.0118         estimate D2E/DX2                !
 ! D98   D(13,7,9,5)          -122.6019         estimate D2E/DX2                !
 ! D99   D(13,7,9,11)           32.5509         estimate D2E/DX2                !
 ! D100  D(2,7,12,1)             0.9624         estimate D2E/DX2                !
 ! D101  D(2,7,12,5)           -91.2392         estimate D2E/DX2                !
 ! D102  D(2,7,12,16)          134.683          estimate D2E/DX2                !
 ! D103  D(9,7,12,1)            93.1638         estimate D2E/DX2                !
 ! D104  D(9,7,12,5)             0.9622         estimate D2E/DX2                !
 ! D105  D(9,7,12,16)         -133.1157         estimate D2E/DX2                !
 ! D106  D(13,7,12,1)         -133.1165         estimate D2E/DX2                !
 ! D107  D(13,7,12,5)          134.6818         estimate D2E/DX2                !
 ! D108  D(13,7,12,16)           0.604          estimate D2E/DX2                !
 --------------------------------------------------------------------------------
 Trust Radius=3.00D-01 FncErr=1.00D-07 GrdErr=1.00D-06
 Number of steps in this run=    100 maximum allowed number of steps=    100.
 GradGradGradGradGradGradGradGradGradGradGradGradGradGradGradGradGradGrad

                          Input orientation:                          
 ---------------------------------------------------------------------
 Center     Atomic      Atomic             Coordinates (Angstroms)
 Number     Number       Type             X           Y           Z
 ---------------------------------------------------------------------
      1          6           0       -2.587800    0.475610   -0.095700
      2          6           0       -2.384440   -1.016200   -0.408640
      3          6           0       -1.163210    0.525580    0.515270
      4          6           0       -0.983490   -0.983400    0.216820
      5          6           0       -1.686970    0.176080    1.914720
      6          1           0       -0.293870    1.153750    0.226520
      7          6           0       -2.938030   -1.370290    0.996150
      8          1           0       -2.788520   -1.704290   -1.180180
      9          6           0       -1.538360   -1.326610    1.623800
     10          1           0       -0.004230   -1.244340   -0.237800
     11          1           0       -0.956840   -2.148630    2.090830
     12          6           0       -3.112840    0.136990    1.305940
     13          1           0       -3.812980   -1.996510    1.271860
     14          1           0       -1.666620    0.787960    2.840570
     15          1           0       -2.785600    1.373840   -0.717040
     16          1           0       -4.086470    0.395940    1.773610
 ---------------------------------------------------------------------
                    Distance matrix (angstroms):
                    1          2          3          4          5
     1  C    0.000000
     2  C    1.537785   0.000000
     3  C    1.550883   2.173039   0.000000
     4  C    2.190933   1.534580   1.548674   0.000000
     5  C    2.223286   2.702961   1.534580   2.173049   0.000000
     6  H    2.413672   3.079382   1.110732   2.245680   2.397204
     7  C    2.173050   1.550895   2.641128   2.139455   2.190932
     8  H    2.443021   1.109965   3.238596   2.393622   3.785183
     9  C    2.702962   2.223290   2.190932   1.550892   1.537790
    10  H    3.106969   2.397214   2.245655   1.110729   3.079375
    11  H    3.785179   3.093184   3.110688   2.206895   2.443027
    12  C    1.534577   2.190935   2.139443   2.641134   1.550886
    13  H    3.079393   2.413672   3.735592   3.185202   3.106982
    14  H    3.093189   3.785185   2.393592   3.238587   1.109959
    15  H    1.109957   2.443017   2.206872   3.110671   3.093182
    16  H    2.397223   3.106970   3.185228   3.735594   2.413680
                    6          7          8          9         10
     6  H    0.000000
     7  C    3.735598   0.000000
     8  H    4.046045   2.206880   0.000000
     9  C    3.106981   1.534578   3.093194   0.000000
    10  H    2.459740   3.185228   2.975215   2.413686   0.000000
    11  H    3.849792   2.393585   3.775182   1.109955   2.673523
    12  C    3.185206   1.548684   3.110673   2.173050   3.735594
    13  H    4.837459   1.110723   2.673464   2.397191   4.165502
    14  H    2.975147   3.110693   4.861728   2.443028   4.046004
    15  H    2.673474   3.238596   3.112779   3.785178   3.849748
    16  H    4.165523   2.245646   3.849742   3.079365   4.837455
                   11         12         13         14         15
    11  H    0.000000
    12  C    3.238587   0.000000
    13  H    2.975128   2.245702   0.000000
    14  H    3.112790   2.206899   3.849803   0.000000
    15  H    4.861717   2.393602   4.046046   3.775177   0.000000
    16  H    4.045992   1.110732   2.459749   2.673529   2.975212
                   16
    16  H    0.000000
 Stoichiometry    C8H8
 Framework group  C1[X(C8H8)]
 Deg. of freedom    42
 Full point group                 C1      NOp   1
 Largest Abelian subgroup         C1      NOp   1
 Largest concise Abelian subgroup C1      NOp   1
                         Standard orientation:                         
 ---------------------------------------------------------------------
 Center     Atomic      Atomic             Coordinates (Angstroms)
 Number     Number       Type             X           Y           Z
 ---------------------------------------------------------------------
      1          6           0       -0.014695   -0.768812    1.111502
      2          6           0        0.014855    0.768690    1.111584
      3          6           0        1.069946   -0.774013    0.003006
      4          6           0        1.069494    0.774649   -0.003152
      5          6           0        0.015149   -0.768685   -1.111584
      6          1           0        2.083086   -1.229232    0.010075
      7          6           0       -1.069951    0.774016    0.003232
      8          1           0       -0.195631    1.543927    1.877565
      9          6           0       -0.015308    0.768803   -1.111501
     10          1           0        2.082379    1.230423   -0.010368
     11          1           0        0.194663    1.544257   -1.877388
     12          6           0       -1.069489   -0.774655   -0.003084
     13          1           0       -2.083071    1.229253    0.010492
     14          1           0       -0.194923   -1.544056   -1.877533
     15          1           0        0.195881   -1.544132    1.877361
     16          1           0       -2.082387   -1.230409   -0.010219
 ---------------------------------------------------------------------
 Rotational constants (GHZ):      3.4749790      3.4592777      3.4527059
 Standard basis: 6-31G(d) (6D, 7F)
 There are   136 symmetry adapted cartesian basis functions of A   symmetry.
 There are   136 symmetry adapted basis functions of A   symmetry.
   136 basis functions,   256 primitive gaussians,   136 cartesian basis functions
    28 alpha electrons       28 beta electrons
       nuclear repulsion energy       372.2161138510 Hartrees.
 NAtoms=   16 NActive=   16 NUniq=   16 SFac= 1.00D+00 NAtFMM=   60 NAOKFM=F Big=F
 Integral buffers will be    131072 words long.
 Raffenetti 2 integral format.
 Two-electron integral symmetry is turned on.
 One-electron integrals computed using PRISM.
 NBasis=   136 RedAO= T EigKep=  2.44D-04  NBF=   136
 NBsUse=   136 1.00D-06 EigRej= -1.00D+00 NBFU=   136
 ExpMin= 1.61D-01 ExpMax= 3.05D+03 ExpMxC= 4.57D+02 IAcc=3 IRadAn=         5 AccDes= 0.00D+00
 Harris functional with IExCor=  402 and IRadAn=       5 diagonalized for initial guess.
 HarFok:  IExCor=  402 AccDes= 0.00D+00 IRadAn=         5 IDoV= 1 UseB2=F ITyADJ=14
 ICtDFT=  3500011 ScaDFX=  1.000000  1.000000  1.000000  1.000000
 FoFCou: FMM=F IPFlag=           0 FMFlag=      100000 FMFlg1=           0
         NFxFlg=           0 DoJE=T BraDBF=F KetDBF=T FulRan=T
         wScrn=  0.000000 ICntrl=     500 IOpCl=  0 I1Cent=   200000004 NGrid=           0
         NMat0=    1 NMatS0=      1 NMatT0=    0 NMatD0=    1 NMtDS0=    0 NMtDT0=    0
 Petite list used in FoFCou.
 Requested convergence on RMS density matrix=1.00D-08 within 128 cycles.
 Requested convergence on MAX density matrix=1.00D-06.
 Requested convergence on             energy=1.00D-06.
 No special actions if energy rises.
 Integral accuracy reduced to 1.0D-05 until final iterations.
 Initial convergence to 1.0D-05 achieved.  Increase integral accuracy.
 SCF Done:  E(RB3LYP) =  -309.420882990     A.U. after   11 cycles
            NFock= 11  Conv=0.72D-08     -V/T= 2.0080

 **********************************************************************

            Population analysis using the SCF density.

 **********************************************************************

 Orbital symmetries:
       Occupied  (A) (A) (A) (A) (A) (A) (A) (A) (A) (A) (A) (A)
                 (A) (A) (A) (A) (A) (A) (A) (A) (A) (A) (A) (A)
                 (A) (A) (A) (A)
       Virtual   (A) (A) (A) (A) (A) (A) (A) (A) (A) (A) (A) (A)
                 (A) (A) (A) (A) (A) (A) (A) (A) (A) (A) (A) (A)
                 (A) (A) (A) (A) (A) (A) (A) (A) (A) (A) (A) (A)
                 (A) (A) (A) (A) (A) (A) (A) (A) (A) (A) (A) (A)
                 (A) (A) (A) (A) (A) (A) (A) (A) (A) (A) (A) (A)
                 (A) (A) (A) (A) (A) (A) (A) (A) (A) (A) (A) (A)
                 (A) (A) (A) (A) (A) (A) (A) (A) (A) (A) (A) (A)
                 (A) (A) (A) (A) (A) (A) (A) (A) (A) (A) (A) (A)
                 (A) (A) (A) (A) (A) (A) (A) (A) (A) (A) (A) (A)
 The electronic state is 1-A.
 Alpha  occ. eigenvalues --  -10.18299 -10.18299 -10.18281 -10.18280 -10.17414
 Alpha  occ. eigenvalues --  -10.17414 -10.17396 -10.17395  -0.96191  -0.73357
 Alpha  occ. eigenvalues --   -0.73039  -0.72850  -0.55998  -0.55579  -0.54185
 Alpha  occ. eigenvalues --   -0.52781  -0.45659  -0.44099  -0.43712  -0.42629
 Alpha  occ. eigenvalues --   -0.41281  -0.41030  -0.28003  -0.27617  -0.27202
 Alpha  occ. eigenvalues --   -0.25706  -0.24680  -0.24355
 Alpha virt. eigenvalues --    0.07490   0.07597   0.07786   0.08341   0.14917
 Alpha virt. eigenvalues --    0.15413   0.15718   0.16971   0.17185   0.18992
 Alpha virt. eigenvalues --    0.19304   0.20851   0.20972   0.21033   0.30027
 Alpha virt. eigenvalues --    0.30676   0.33556   0.33882   0.34684   0.47573
 Alpha virt. eigenvalues --    0.49164   0.51996   0.52285   0.53083   0.53791
 Alpha virt. eigenvalues --    0.55940   0.58563   0.59102   0.63823   0.65258
 Alpha virt. eigenvalues --    0.65879   0.66239   0.74207   0.74291   0.74719
 Alpha virt. eigenvalues --    0.77544   0.78963   0.79225   0.80133   0.80556
 Alpha virt. eigenvalues --    0.80815   0.81558   0.82597   0.84524   0.88814
 Alpha virt. eigenvalues --    0.89357   0.89547   0.90161   1.00129   1.03061
 Alpha virt. eigenvalues --    1.08477   1.18038   1.27263   1.33233   1.33656
 Alpha virt. eigenvalues --    1.38400   1.38917   1.50683   1.69077   1.69463
 Alpha virt. eigenvalues --    1.70294   1.71637   1.71755   1.78983   1.80359
 Alpha virt. eigenvalues --    1.83829   1.84273   1.85822   1.88141   1.94309
 Alpha virt. eigenvalues --    1.95532   1.98433   1.98950   2.02078   2.05161
 Alpha virt. eigenvalues --    2.05647   2.16445   2.17584   2.18375   2.31790
 Alpha virt. eigenvalues --    2.32930   2.35934   2.44337   2.44640   2.48373
 Alpha virt. eigenvalues --    2.52765   2.53399   2.56000   2.60652   2.61159
 Alpha virt. eigenvalues --    2.68194   2.70233   2.73468   2.76059   2.83369
 Alpha virt. eigenvalues --    2.87140   2.87453   2.90920   2.91177   2.93906
 Alpha virt. eigenvalues --    4.16619   4.38844   4.41784   4.43110   4.80630
 Alpha virt. eigenvalues --    4.81641   4.86519   5.45991
          Condensed to atoms (all electrons):
               1          2          3          4          5          6
     1  C    5.088074   0.350524   0.340490  -0.097723  -0.092893  -0.025148
     2  C    0.350524   5.088079  -0.091572   0.337068  -0.009946   0.006983
     3  C    0.340490  -0.091572   5.136584   0.347243   0.337071   0.339581
     4  C   -0.097723   0.337068   0.347243   5.136572  -0.091573  -0.035109
     5  C   -0.092893  -0.009946   0.337071  -0.091573   5.088068  -0.027565
     6  H   -0.025148   0.006983   0.339581  -0.035109  -0.027565   0.624018
     7  C   -0.091571   0.340490  -0.021587  -0.080795  -0.097721  -0.000259
     8  H   -0.030024   0.341143   0.009195  -0.031526  -0.000814  -0.000339
     9  C   -0.009946  -0.092894  -0.097721   0.340496   0.350527   0.009145
    10  H    0.009146  -0.027566  -0.035112   0.339581   0.006983  -0.008462
    11  H   -0.000814   0.009319   0.009635  -0.045701  -0.030024  -0.000480
    12  C    0.337069  -0.097722  -0.080795  -0.021586   0.340491   0.007339
    13  H    0.006982  -0.025149  -0.000259   0.007340   0.009145   0.000073
    14  H    0.009319  -0.000814  -0.031530   0.009195   0.341144  -0.003472
    15  H    0.341144  -0.030023  -0.045702   0.009635   0.009319  -0.004716
    16  H   -0.027565   0.009146   0.007340  -0.000259  -0.025149  -0.000312
               7          8          9         10         11         12
     1  C   -0.091571  -0.030024  -0.009946   0.009146  -0.000814   0.337069
     2  C    0.340490   0.341143  -0.092894  -0.027566   0.009319  -0.097722
     3  C   -0.021587   0.009195  -0.097721  -0.035112   0.009635  -0.080795
     4  C   -0.080795  -0.031526   0.340496   0.339581  -0.045701  -0.021586
     5  C   -0.097721  -0.000814   0.350527   0.006983  -0.030024   0.340491
     6  H   -0.000259  -0.000339   0.009145  -0.008462  -0.000480   0.007339
     7  C    5.136584  -0.045702   0.337072   0.007340  -0.031531   0.347242
     8  H   -0.045702   0.639577   0.009319  -0.003471  -0.000505   0.009635
     9  C    0.337072   0.009319   5.088060  -0.025149   0.341145  -0.091573
    10  H    0.007340  -0.003471  -0.025149   0.624021  -0.004716  -0.000259
    11  H   -0.031531  -0.000505   0.341145  -0.004716   0.639577   0.009196
    12  C    0.347242   0.009635  -0.091573  -0.000259   0.009196   5.136573
    13  H    0.339583  -0.004716  -0.027566  -0.000312  -0.003472  -0.035108
    14  H    0.009635   0.000078  -0.030024  -0.000339  -0.002569  -0.045701
    15  H    0.009195  -0.002569  -0.000814  -0.000480   0.000078  -0.031527
    16  H   -0.035112  -0.000480   0.006983   0.000073  -0.000339   0.339581
              13         14         15         16
     1  C    0.006982   0.009319   0.341144  -0.027565
     2  C   -0.025149  -0.000814  -0.030023   0.009146
     3  C   -0.000259  -0.031530  -0.045702   0.007340
     4  C    0.007340   0.009195   0.009635  -0.000259
     5  C    0.009145   0.341144   0.009319  -0.025149
     6  H    0.000073  -0.003472  -0.004716  -0.000312
     7  C    0.339583   0.009635   0.009195  -0.035112
     8  H   -0.004716   0.000078  -0.002569  -0.000480
     9  C   -0.027566  -0.030024  -0.000814   0.006983
    10  H   -0.000312  -0.000339  -0.000480   0.000073
    11  H   -0.003472  -0.002569   0.000078  -0.000339
    12  C   -0.035108  -0.045701  -0.031527   0.339581
    13  H    0.624015  -0.000480  -0.000339  -0.008461
    14  H   -0.000480   0.639577  -0.000505  -0.004716
    15  H   -0.000339  -0.000505   0.639575  -0.003471
    16  H   -0.008461  -0.004716  -0.003471   0.624021
 Mulliken charges:
               1
     1  C   -0.107064
     2  C   -0.107065
     3  C   -0.122861
     4  C   -0.122855
     5  C   -0.107063
     6  H    0.118722
     7  C   -0.122863
     8  H    0.111200
     9  C   -0.107061
    10  H    0.118721
    11  H    0.111200
    12  C   -0.122855
    13  H    0.118723
    14  H    0.111199
    15  H    0.111201
    16  H    0.118721
 Sum of Mulliken charges =   0.00000
 Mulliken charges with hydrogens summed into heavy atoms:
               1
     1  C    0.004137
     2  C    0.004135
     3  C   -0.004139
     4  C   -0.004134
     5  C    0.004136
     7  C   -0.004139
     9  C    0.004139
    12  C   -0.004134
 Electronic spatial extent (au):  <R**2>=            578.3283
 Charge=              0.0000 electrons
 Dipole moment (field-independent basis, Debye):
    X=              0.0000    Y=              0.0000    Z=              0.0000  Tot=              0.0000
 Quadrupole moment (field-independent basis, Debye-Ang):
   XX=            -45.1449   YY=            -46.7012   ZZ=            -47.7498
   XY=              0.0002   XZ=             -0.0002   YZ=              0.0000
 Traceless Quadrupole moment (field-independent basis, Debye-Ang):
   XX=              1.3871   YY=             -0.1693   ZZ=             -1.2178
   XY=              0.0002   XZ=             -0.0002   YZ=              0.0000
 Octapole moment (field-independent basis, Debye-Ang**2):
  XXX=              0.0000  YYY=              0.0001  ZZZ=             -0.0001  XYY=              0.0001
  XXY=             -0.0001  XXZ=              0.0011  XZZ=             -0.0002  YZZ=              0.0002
  YYZ=             -0.0013  XYZ=             -1.8403
 Hexadecapole moment (field-independent basis, Debye-Ang**3):
 XXXX=           -249.8788 YYYY=           -265.7737 ZZZZ=           -270.4303 XXXY=              0.0042
 XXXZ=             -0.0017 YYYX=             -0.0004 YYYZ=             -0.0010 ZZZX=             -0.0002
 ZZZY=              0.0011 XXYY=            -88.0894 XXZZ=            -90.7391 YYZZ=            -83.1853
 XXYZ=              0.0002 YYXZ=              0.0003 ZZXY=             -0.0025
 N-N= 3.722161138510D+02 E-N=-1.461356510648D+03  KE= 3.069602468067D+02
 Calling FoFJK, ICntrl=      2127 FMM=F ISym2X=0 I1Cent= 0 IOpClX= 0 NMat=1 NMatS=1 NMatT=0.
 ***** Axes restored to original set *****
 -------------------------------------------------------------------
 Center     Atomic                   Forces (Hartrees/Bohr)
 Number     Number              X              Y              Z
 -------------------------------------------------------------------
      1        6           0.010706336    0.048864019   -0.019340739
      2        6          -0.026492014   -0.043357899   -0.017180135
      3        6           0.033287060    0.000551025   -0.007901437
      4        6           0.027611179    0.011546561   -0.016583003
      5        6          -0.020447747    0.034031185    0.036055335
      6        1          -0.016300481    0.005432435    0.005975979
      7        6          -0.028706530   -0.002140085    0.018473803
      8        1           0.011637883    0.017450665   -0.007935781
      9        6           0.036229912   -0.039538521    0.000461913
     10        1          -0.013044115   -0.011265204    0.005823290
     11        1          -0.014860147    0.010015855    0.013476339
     12        6          -0.032186586   -0.009959216    0.006013187
     13        1           0.014947158   -0.004962170   -0.009094332
     14        1           0.018820860   -0.011400040   -0.004310977
     15        1          -0.015596117   -0.016065336   -0.001228115
     16        1           0.014393348    0.010796725   -0.002705328
 -------------------------------------------------------------------
 Cartesian Forces:  Max     0.048864019 RMS     0.020167693

 GradGradGradGradGradGradGradGradGradGradGradGradGradGradGradGradGradGrad
 Berny optimization.
 FormGI is forming the generalized inverse of G from B-inverse, IUseBI=4.
 Internal  Forces:  Max     0.017789698 RMS     0.005212490
 Search for a local minimum.
 Step number   1 out of a maximum of  100
 All quantities printed in internal units (Hartrees-Bohrs-Radians)
 Mixed Optimization -- RFO/linear search
 Second derivative matrix not updated -- first step.
 ITU=  0
     Eigenvalues ---    0.01425   0.01574   0.01907   0.01922   0.02081
     Eigenvalues ---    0.02343   0.02438   0.02475   0.02602   0.02934
     Eigenvalues ---    0.03304   0.04342   0.04361   0.05169   0.05185
     Eigenvalues ---    0.05244   0.05724   0.05848   0.10550   0.10877
     Eigenvalues ---    0.11141   0.11141   0.12357   0.12752   0.13174
     Eigenvalues ---    0.20454   0.20862   0.20876   0.21126   0.21347
     Eigenvalues ---    0.21634   0.28240   0.28330   0.28332   0.32523
     Eigenvalues ---    0.32523   0.32523   0.32524   0.32604   0.32604
     Eigenvalues ---    0.32605   0.32605
 RFO step:  Lambda=-2.96123028D-02 EMin= 1.42532269D-02
 Linear search not attempted -- first point.
 Iteration  1 RMS(Cart)=  0.02993583 RMS(Int)=  0.00112073
 Iteration  2 RMS(Cart)=  0.00080908 RMS(Int)=  0.00068623
 Iteration  3 RMS(Cart)=  0.00000054 RMS(Int)=  0.00068623
 Variable       Old X    -DE/DX   Delta X   Delta X   Delta X     New X
                                 (Linear)    (Quad)   (Total)
    R1        2.90599   0.01779   0.00000   0.06033   0.06050   2.96649
    R2        2.93074   0.01602   0.00000   0.05007   0.04966   2.98040
    R3        2.89993   0.01401   0.00000   0.04608   0.04647   2.94640
    R4        2.09752  -0.00953   0.00000  -0.02681  -0.02681   2.07071
    R5        2.89994   0.01401   0.00000   0.04607   0.04647   2.94641
    R6        2.93077   0.01602   0.00000   0.05005   0.04964   2.98041
    R7        2.09753  -0.00954   0.00000  -0.02682  -0.02682   2.07071
    R8        2.92657   0.01400   0.00000   0.04145   0.04131   2.96788
    R9        2.89994   0.01401   0.00000   0.04607   0.04647   2.94640
   R10        2.09898  -0.01124   0.00000  -0.03167  -0.03167   2.06731
   R11        2.93076   0.01602   0.00000   0.05006   0.04965   2.98041
   R12        2.09897  -0.01124   0.00000  -0.03167  -0.03167   2.06731
   R13        2.90600   0.01779   0.00000   0.06032   0.06049   2.96649
   R14        2.93075   0.01602   0.00000   0.05006   0.04965   2.98040
   R15        2.09752  -0.00954   0.00000  -0.02681  -0.02681   2.07071
   R16        2.89993   0.01401   0.00000   0.04607   0.04647   2.94640
   R17        2.92659   0.01400   0.00000   0.04144   0.04130   2.96789
   R18        2.09896  -0.01123   0.00000  -0.03166  -0.03166   2.06730
   R19        2.09751  -0.00953   0.00000  -0.02680  -0.02680   2.07071
   R20        2.09898  -0.01124   0.00000  -0.03167  -0.03167   2.06731
    A1        1.56075  -0.00076   0.00000  -0.00084  -0.00069   1.56006
    A2        1.58785  -0.00057   0.00000  -0.00568  -0.00585   1.58200
    A3        2.33880  -0.00229   0.00000  -0.03202  -0.03365   2.30515
    A4        1.53235  -0.00273   0.00000  -0.00944  -0.00935   1.52300
    A5        1.93708   0.00499   0.00000   0.07251   0.07345   2.01053
    A6        2.25092   0.00127   0.00000  -0.00272  -0.00523   2.24569
    A7        1.58785  -0.00057   0.00000  -0.00568  -0.00585   1.58200
    A8        1.56075  -0.00076   0.00000  -0.00084  -0.00069   1.56006
    A9        2.33880  -0.00229   0.00000  -0.03201  -0.03365   2.30514
   A10        1.53235  -0.00273   0.00000  -0.00944  -0.00936   1.52300
   A11        2.25094   0.00127   0.00000  -0.00273  -0.00523   2.24571
   A12        1.93707   0.00499   0.00000   0.07251   0.07345   2.01052
   A13        1.57008   0.00014   0.00000  -0.00018  -0.00007   1.57001
   A14        1.60922   0.00274   0.00000   0.00948   0.00938   1.61860
   A15        2.25848  -0.00268   0.00000  -0.02890  -0.02966   2.22881
   A16        1.56424   0.00120   0.00000   0.00689   0.00677   1.57100
   A17        1.99339   0.00253   0.00000   0.04890   0.04959   2.04298
   A18        2.25623  -0.00219   0.00000  -0.01818  -0.01961   2.23662
   A19        1.56423   0.00120   0.00000   0.00689   0.00676   1.57099
   A20        1.60921   0.00274   0.00000   0.00948   0.00938   1.61859
   A21        2.25625  -0.00219   0.00000  -0.01818  -0.01961   2.23664
   A22        1.57007   0.00014   0.00000  -0.00018  -0.00007   1.57000
   A23        1.99335   0.00253   0.00000   0.04891   0.04960   2.04296
   A24        2.25849  -0.00268   0.00000  -0.02890  -0.02966   2.22883
   A25        1.58784  -0.00057   0.00000  -0.00569  -0.00585   1.58199
   A26        1.53235  -0.00273   0.00000  -0.00943  -0.00935   1.52300
   A27        2.25090   0.00127   0.00000  -0.00272  -0.00522   2.24568
   A28        1.56075  -0.00075   0.00000  -0.00083  -0.00068   1.56007
   A29        2.33881  -0.00229   0.00000  -0.03202  -0.03366   2.30516
   A30        1.93711   0.00498   0.00000   0.07250   0.07344   2.01055
   A31        1.60921   0.00274   0.00000   0.00949   0.00938   1.61859
   A32        1.57007   0.00014   0.00000  -0.00017  -0.00006   1.57001
   A33        2.25847  -0.00268   0.00000  -0.02890  -0.02966   2.22881
   A34        1.56423   0.00120   0.00000   0.00689   0.00677   1.57100
   A35        2.25622  -0.00219   0.00000  -0.01818  -0.01961   2.23662
   A36        1.99342   0.00253   0.00000   0.04889   0.04958   2.04299
   A37        1.56075  -0.00075   0.00000  -0.00083  -0.00068   1.56007
   A38        1.53236  -0.00273   0.00000  -0.00944  -0.00936   1.52300
   A39        1.93710   0.00498   0.00000   0.07250   0.07344   2.01054
   A40        1.58784  -0.00057   0.00000  -0.00569  -0.00585   1.58199
   A41        2.33882  -0.00229   0.00000  -0.03202  -0.03366   2.30516
   A42        2.25090   0.00127   0.00000  -0.00271  -0.00522   2.24568
   A43        1.60922   0.00274   0.00000   0.00948   0.00938   1.61859
   A44        1.56423   0.00120   0.00000   0.00688   0.00676   1.57099
   A45        2.25627  -0.00219   0.00000  -0.01819  -0.01962   2.23665
   A46        1.57007   0.00014   0.00000  -0.00018  -0.00007   1.57000
   A47        2.25849  -0.00268   0.00000  -0.02890  -0.02966   2.22883
   A48        1.99333   0.00253   0.00000   0.04892   0.04961   2.04294
    D1        0.01692  -0.00038   0.00000  -0.00585  -0.00587   0.01105
    D2        1.54909  -0.00313   0.00000  -0.01524  -0.01518   1.53392
    D3       -2.65325   0.00225   0.00000   0.07477   0.07380  -2.57945
    D4       -1.51525   0.00236   0.00000   0.00354   0.00343  -1.51183
    D5        0.01692  -0.00038   0.00000  -0.00585  -0.00587   0.01104
    D6        2.09776   0.00499   0.00000   0.08416   0.08310   2.18087
    D7        2.09778   0.00499   0.00000   0.08415   0.08310   2.18088
    D8       -2.65323   0.00225   0.00000   0.07476   0.07380  -2.57944
    D9       -0.57239   0.00762   0.00000   0.16477   0.16277  -0.40961
   D10       -0.01676   0.00038   0.00000   0.00576   0.00580  -0.01097
   D11       -1.58097  -0.00082   0.00000  -0.00112  -0.00097  -1.58193
   D12        2.11283   0.00266   0.00000   0.05884   0.05869   2.17152
   D13        1.57149  -0.00013   0.00000   0.00021   0.00008   1.57156
   D14        0.00729  -0.00133   0.00000  -0.00667  -0.00669   0.00060
   D15       -2.58210   0.00215   0.00000   0.05329   0.05297  -2.52913
   D16       -2.42099   0.00140   0.00000   0.01338   0.01275  -2.40824
   D17        2.29799   0.00020   0.00000   0.00650   0.00599   2.30398
   D18       -0.29140   0.00368   0.00000   0.06646   0.06565  -0.22575
   D19        1.55288   0.00054   0.00000   0.00583   0.00604   1.55892
   D20       -0.01694   0.00037   0.00000   0.00581   0.00585  -0.01109
   D21       -2.13971  -0.00319   0.00000  -0.05945  -0.05905  -2.19876
   D22       -0.00721   0.00132   0.00000   0.00661   0.00662  -0.00059
   D23       -1.57703   0.00116   0.00000   0.00659   0.00643  -1.57060
   D24        2.58339  -0.00240   0.00000  -0.05867  -0.05848   2.52491
   D25       -2.02236  -0.00335   0.00000  -0.08069  -0.08139  -2.10375
   D26        2.69101  -0.00352   0.00000  -0.08071  -0.08158   2.60943
   D27        0.56824  -0.00708   0.00000  -0.14597  -0.14649   0.42176
   D28       -0.01694   0.00037   0.00000   0.00581   0.00585  -0.01109
   D29        1.55288   0.00054   0.00000   0.00583   0.00604   1.55892
   D30       -2.13973  -0.00319   0.00000  -0.05944  -0.05905  -2.19878
   D31       -1.57703   0.00116   0.00000   0.00659   0.00643  -1.57060
   D32       -0.00721   0.00132   0.00000   0.00661   0.00662  -0.00059
   D33        2.58337  -0.00240   0.00000  -0.05866  -0.05847   2.52490
   D34        2.69102  -0.00352   0.00000  -0.08071  -0.08159   2.60943
   D35       -2.02235  -0.00335   0.00000  -0.08069  -0.08139  -2.10374
   D36        0.56823  -0.00708   0.00000  -0.14596  -0.14648   0.42175
   D37       -1.58096  -0.00082   0.00000  -0.00112  -0.00097  -1.58193
   D38       -0.01676   0.00038   0.00000   0.00576   0.00580  -0.01096
   D39        2.11286   0.00266   0.00000   0.05883   0.05868   2.17154
   D40        0.00729  -0.00133   0.00000  -0.00667  -0.00669   0.00060
   D41        1.57148  -0.00013   0.00000   0.00021   0.00008   1.57156
   D42       -2.58208   0.00215   0.00000   0.05328   0.05296  -2.52912
   D43        2.29801   0.00019   0.00000   0.00649   0.00598   2.30399
   D44       -2.42098   0.00140   0.00000   0.01338   0.01275  -2.40823
   D45       -0.29136   0.00368   0.00000   0.06644   0.06563  -0.22573
   D46        0.01680  -0.00036   0.00000  -0.00569  -0.00576   0.01104
   D47       -1.59242  -0.00310   0.00000  -0.01517  -0.01513  -1.60755
   D48        2.35065  -0.00113   0.00000  -0.00222  -0.00218   2.34846
   D49        1.62602   0.00238   0.00000   0.00378   0.00362   1.62963
   D50        0.01680  -0.00036   0.00000  -0.00570  -0.00576   0.01104
   D51       -2.32332   0.00161   0.00000   0.00726   0.00719  -2.31613
   D52       -2.32332   0.00161   0.00000   0.00726   0.00719  -2.31613
   D53        2.35064  -0.00113   0.00000  -0.00222  -0.00218   2.34846
   D54        0.01053   0.00084   0.00000   0.01073   0.01077   0.02129
   D55        1.55288   0.00054   0.00000   0.00583   0.00605   1.55893
   D56       -0.00721   0.00132   0.00000   0.00661   0.00662  -0.00059
   D57       -2.02239  -0.00335   0.00000  -0.08068  -0.08138  -2.10377
   D58       -0.01695   0.00037   0.00000   0.00581   0.00585  -0.01109
   D59       -1.57704   0.00116   0.00000   0.00658   0.00642  -1.57061
   D60        2.69097  -0.00352   0.00000  -0.08070  -0.08158   2.60939
   D61       -2.13978  -0.00318   0.00000  -0.05943  -0.05903  -2.19881
   D62        2.58332  -0.00240   0.00000  -0.05865  -0.05846   2.52485
   D63        0.56814  -0.00708   0.00000  -0.14594  -0.14646   0.42167
   D64       -1.58096  -0.00082   0.00000  -0.00111  -0.00096  -1.58192
   D65        0.00729  -0.00133   0.00000  -0.00667  -0.00669   0.00060
   D66        2.29797   0.00020   0.00000   0.00651   0.00600   2.30397
   D67       -0.01677   0.00038   0.00000   0.00576   0.00580  -0.01097
   D68        1.57148  -0.00013   0.00000   0.00021   0.00007   1.57155
   D69       -2.42102   0.00140   0.00000   0.01338   0.01276  -2.40827
   D70        2.11278   0.00267   0.00000   0.05886   0.05871   2.17149
   D71       -2.58216   0.00215   0.00000   0.05330   0.05298  -2.52918
   D72       -0.29148   0.00368   0.00000   0.06648   0.06566  -0.22581
   D73        0.01692  -0.00038   0.00000  -0.00585  -0.00588   0.01105
   D74       -1.51525   0.00236   0.00000   0.00354   0.00343  -1.51183
   D75        2.09783   0.00499   0.00000   0.08415   0.08309   2.18092
   D76        1.54909  -0.00312   0.00000  -0.01524  -0.01517   1.53392
   D77        0.01692  -0.00038   0.00000  -0.00584  -0.00587   0.01105
   D78       -2.65319   0.00225   0.00000   0.07476   0.07380  -2.57939
   D79       -2.65317   0.00225   0.00000   0.07475   0.07379  -2.57938
   D80        2.09784   0.00499   0.00000   0.08415   0.08309   2.18093
   D81       -0.57227   0.00762   0.00000   0.16475   0.16276  -0.40951
   D82        0.00729  -0.00133   0.00000  -0.00667  -0.00669   0.00060
   D83        1.57148  -0.00013   0.00000   0.00020   0.00007   1.57155
   D84       -2.58220   0.00215   0.00000   0.05331   0.05299  -2.52920
   D85       -1.58096  -0.00082   0.00000  -0.00111  -0.00096  -1.58192
   D86       -0.01676   0.00038   0.00000   0.00576   0.00579  -0.01096
   D87        2.11275   0.00267   0.00000   0.05887   0.05872   2.17147
   D88        2.29797   0.00020   0.00000   0.00650   0.00600   2.30397
   D89       -2.42102   0.00140   0.00000   0.01338   0.01275  -2.40827
   D90       -0.29151   0.00368   0.00000   0.06649   0.06568  -0.22584
   D91       -0.00721   0.00132   0.00000   0.00661   0.00662  -0.00059
   D92        1.55288   0.00054   0.00000   0.00584   0.00605   1.55893
   D93       -2.02238  -0.00335   0.00000  -0.08068  -0.08138  -2.10376
   D94       -1.57702   0.00115   0.00000   0.00658   0.00641  -1.57061
   D95       -0.01694   0.00037   0.00000   0.00580   0.00585  -0.01109
   D96        2.69099  -0.00352   0.00000  -0.08071  -0.08159   2.60940
   D97        2.58329  -0.00240   0.00000  -0.05864  -0.05845   2.52484
   D98       -2.13981  -0.00318   0.00000  -0.05942  -0.05902  -2.19883
   D99        0.56812  -0.00708   0.00000  -0.14593  -0.14645   0.42167
   D100       0.01680  -0.00036   0.00000  -0.00569  -0.00576   0.01104
   D101      -1.59242  -0.00310   0.00000  -0.01517  -0.01513  -1.60756
   D102       2.35066  -0.00113   0.00000  -0.00223  -0.00219   2.34847
   D103       1.62601   0.00238   0.00000   0.00379   0.00362   1.62963
   D104       0.01679  -0.00036   0.00000  -0.00569  -0.00575   0.01104
   D105      -2.32331   0.00161   0.00000   0.00725   0.00719  -2.31612
   D106      -2.32332   0.00161   0.00000   0.00726   0.00719  -2.31613
   D107       2.35064  -0.00113   0.00000  -0.00222  -0.00218   2.34846
   D108       0.01054   0.00084   0.00000   0.01073   0.01076   0.02130
         Item               Value     Threshold  Converged?
 Maximum Force            0.017790     0.000450     NO 
 RMS     Force            0.005212     0.000300     NO 
 Maximum Displacement     0.138398     0.001800     NO 
 RMS     Displacement     0.029795     0.001200     NO 
 Predicted change in Energy=-2.048190D-02
 GradGradGradGradGradGradGradGradGradGradGradGradGradGradGradGradGradGrad

                          Input orientation:                          
 ---------------------------------------------------------------------
 Center     Atomic      Atomic             Coordinates (Angstroms)
 Number     Number       Type             X           Y           Z
 ---------------------------------------------------------------------
      1          6           0       -2.596547    0.494917   -0.114795
      2          6           0       -2.394122   -1.029077   -0.432187
      3          6           0       -1.151760    0.537963    0.516216
      4          6           0       -0.972409   -0.991312    0.206816
      5          6           0       -1.681903    0.188037    1.940123
      6          1           0       -0.323761    1.200461    0.247356
      7          6           0       -2.946601   -1.383675    1.001855
      8          1           0       -2.762947   -1.665222   -1.244594
      9          6           0       -1.524997   -1.345001    1.641038
     10          1           0       -0.022607   -1.300653   -0.239230
     11          1           0       -0.987534   -2.143931    2.164067
     12          6           0       -3.126797    0.145900    1.309294
     13          1           0       -3.782474   -2.043432    1.252469
     14          1           0       -1.593578    0.768474    2.865329
     15          1           0       -2.853515    1.349558   -0.750620
     16          1           0       -4.068718    0.452471    1.773592
 ---------------------------------------------------------------------
                    Distance matrix (angstroms):
                    1          2          3          4          5
     1  C    0.000000
     2  C    1.569800   0.000000
     3  C    1.577161   2.213265   0.000000
     4  C    2.224890   1.559172   1.570534   0.000000
     5  C    2.270118   2.759796   1.559170   2.213278   0.000000
     6  H    2.407177   3.117533   1.093971   2.286101   2.394789
     7  C    2.213268   1.577165   2.673947   2.164133   2.224879
     8  H    2.443427   1.095772   3.248137   2.401410   3.840005
     9  C    2.759795   2.270121   2.224879   1.577163   1.569801
    10  H    3.140816   2.394801   2.286087   1.093971   3.117537
    11  H    3.840007   3.156252   3.151974   2.271474   2.443435
    12  C    1.559170   2.224891   2.164130   2.673967   1.577162
    13  H    3.117539   2.407177   3.758500   3.177548   3.140815
    14  H    3.156251   3.840009   2.401390   3.248137   1.095772
    15  H    1.095772   2.443428   2.271460   3.151970   3.156248
    16  H    2.394807   3.140815   3.177569   3.758514   2.407186
                    6          7          8          9         10
     6  H    0.000000
     7  C    3.758500   0.000000
     8  H    4.048170   2.271460   0.000000
     9  C    3.140811   1.559170   3.156253   0.000000
    10  H    2.565742   3.177567   2.941620   2.407187   0.000000
    11  H    3.911436   2.401389   3.873012   1.095771   2.723608
    12  C    3.177550   1.570538   3.151967   2.213279   3.758516
    13  H    4.847246   1.093970   2.723564   2.394785   4.112601
    14  H    2.941569   3.151976   4.917496   2.443434   4.048150
    15  H    2.723572   3.248137   3.056323   3.840005   3.911416
    16  H    4.112614   2.286079   3.911408   3.117530   4.847259
                   11         12         13         14         15
    11  H    0.000000
    12  C    3.248139   0.000000
    13  H    2.941564   2.286113   0.000000
    14  H    3.056332   2.271476   3.911445   0.000000
    15  H    4.917494   2.401400   4.048173   3.873008   0.000000
    16  H    4.048144   1.093972   2.565743   2.723613   2.941621
                   16
    16  H    0.000000
 Stoichiometry    C8H8
 Framework group  C1[X(C8H8)]
 Deg. of freedom    42
 Full point group                 C1      NOp   1
 Largest Abelian subgroup         C1      NOp   1
 Largest concise Abelian subgroup C1      NOp   1
                         Standard orientation:                         
 ---------------------------------------------------------------------
 Center     Atomic      Atomic             Coordinates (Angstroms)
 Number     Number       Type             X           Y           Z
 ---------------------------------------------------------------------
      1          6           0        1.135001   -0.784789    0.012362
      2          6           0        1.134983    0.784817   -0.012333
      3          6           0       -0.000513   -0.785087   -1.082189
      4          6           0        0.000543    0.785446   -1.081942
      5          6           0       -1.134980   -0.784814   -0.012612
      6          1           0        0.009536   -1.282513   -2.056479
      7          6           0       -0.000565    0.785088    1.082191
      8          1           0        1.931329    1.521618    0.141531
      9          6           0       -1.135001    0.784785    0.012582
     10          1           0       -0.009483    1.283158   -2.056085
     11          1           0       -1.931364    1.521625   -0.141001
     12          6           0        0.000535   -0.785449    1.081940
     13          1           0        0.009446    1.282527    2.056472
     14          1           0       -1.931331   -1.521674    0.140944
     15          1           0        1.931367   -1.521574   -0.141469
     16          1           0       -0.009513   -1.283147    2.056091
 ---------------------------------------------------------------------
 Rotational constants (GHZ):      3.4040104      3.3645645      3.3248141
 Standard basis: 6-31G(d) (6D, 7F)
 There are   136 symmetry adapted cartesian basis functions of A   symmetry.
 There are   136 symmetry adapted basis functions of A   symmetry.
   136 basis functions,   256 primitive gaussians,   136 cartesian basis functions
    28 alpha electrons       28 beta electrons
       nuclear repulsion energy       367.3015943335 Hartrees.
 NAtoms=   16 NActive=   16 NUniq=   16 SFac= 1.00D+00 NAtFMM=   60 NAOKFM=F Big=F
 Integral buffers will be    131072 words long.
 Raffenetti 2 integral format.
 Two-electron integral symmetry is turned on.
 One-electron integrals computed using PRISM.
 NBasis=   136 RedAO= T EigKep=  2.19D-04  NBF=   136
 NBsUse=   136 1.00D-06 EigRej= -1.00D+00 NBFU=   136
 Initial guess from the checkpoint file:  "/tmp/Gau-6799.chk"
 B after Tr=     0.000000    0.000000    0.000000
         Rot=    0.707136    0.000070   -0.707077    0.000024 Ang=  90.00 deg.
 ExpMin= 1.61D-01 ExpMax= 3.05D+03 ExpMxC= 4.57D+02 IAcc=2 IRadAn=         4 AccDes= 0.00D+00
 Harris functional with IExCor=  402 and IRadAn=       4 diagonalized for initial guess.
 HarFok:  IExCor=  402 AccDes= 0.00D+00 IRadAn=         4 IDoV= 1 UseB2=F ITyADJ=14
 ICtDFT=  3500011 ScaDFX=  1.000000  1.000000  1.000000  1.000000
 FoFCou: FMM=F IPFlag=           0 FMFlag=      100000 FMFlg1=           0
         NFxFlg=           0 DoJE=T BraDBF=F KetDBF=T FulRan=T
         wScrn=  0.000000 ICntrl=     500 IOpCl=  0 I1Cent=   200000004 NGrid=           0
         NMat0=    1 NMatS0=      1 NMatT0=    0 NMatD0=    1 NMtDS0=    0 NMtDT0=    0
 Petite list used in FoFCou.
 Requested convergence on RMS density matrix=1.00D-08 within 128 cycles.
 Requested convergence on MAX density matrix=1.00D-06.
 Requested convergence on             energy=1.00D-06.
 No special actions if energy rises.
 Integral accuracy reduced to 1.0D-05 until final iterations.
 Initial convergence to 1.0D-05 achieved.  Increase integral accuracy.
 SCF Done:  E(RB3LYP) =  -309.442306917     A.U. after   11 cycles
            NFock= 11  Conv=0.20D-08     -V/T= 2.0091
 Calling FoFJK, ICntrl=      2127 FMM=F ISym2X=0 I1Cent= 0 IOpClX= 0 NMat=1 NMatS=1 NMatT=0.
 ***** Axes restored to original set *****
 -------------------------------------------------------------------
 Center     Atomic                   Forces (Hartrees/Bohr)
 Number     Number              X              Y              Z
 -------------------------------------------------------------------
      1        6           0.018415412    0.017914417    0.002030793
      2        6          -0.013211016   -0.019732238    0.010018415
      3        6           0.012163385   -0.012117977   -0.005468781
      4        6           0.007743483    0.016075273   -0.002535231
      5        6          -0.022014974    0.012734835    0.004148240
      6        1          -0.006143097    0.007028921    0.002766759
      7        6          -0.011006487    0.011716576    0.008137183
      8        1           0.007051474    0.009744055   -0.007772019
      9        6           0.016809681   -0.010916859   -0.016197350
     10        1          -0.003613802   -0.008968627    0.001156208
     11        1          -0.008687317    0.004193385    0.010582147
     12        6          -0.008898894   -0.015676222   -0.000132496
     13        1           0.005464432   -0.006791755   -0.004333918
     14        1           0.013113874   -0.005739089   -0.000337233
     15        1          -0.011477454   -0.008198340   -0.002473071
     16        1           0.004291300    0.008733646    0.000410356
 -------------------------------------------------------------------
 Cartesian Forces:  Max     0.022014974 RMS     0.010363324

 GradGradGradGradGradGradGradGradGradGradGradGradGradGradGradGradGradGrad
 Berny optimization.
 Using GEDIIS/GDIIS optimizer.
 FormGI is forming the generalized inverse of G from B-inverse, IUseBI=4.
 Internal  Forces:  Max     0.005252952 RMS     0.001652261
 Search for a local minimum.
 Step number   2 out of a maximum of  100
 All quantities printed in internal units (Hartrees-Bohrs-Radians)
 Mixed Optimization -- RFO/linear search
 Update second derivatives using D2CorX and points    1    2
 DE= -2.14D-02 DEPred=-2.05D-02 R= 1.05D+00
 TightC=F SS=  1.41D+00  RLast= 6.27D-01 DXNew= 5.0454D-01 1.8804D+00
 Trust test= 1.05D+00 RLast= 6.27D-01 DXMaxT set to 5.05D-01
 ITU=  1  0
 Use linear search instead of GDIIS.
     Eigenvalues ---    0.01435   0.01565   0.02016   0.02099   0.02129
     Eigenvalues ---    0.02526   0.02578   0.02648   0.02752   0.03080
     Eigenvalues ---    0.03162   0.03899   0.04073   0.04719   0.04788
     Eigenvalues ---    0.04873   0.05321   0.05332   0.10539   0.11121
     Eigenvalues ---    0.11314   0.11386   0.12382   0.12628   0.13412
     Eigenvalues ---    0.20549   0.20938   0.21207   0.21299   0.21650
     Eigenvalues ---    0.21929   0.28264   0.28333   0.29859   0.32213
     Eigenvalues ---    0.32523   0.32523   0.32523   0.32604   0.32604
     Eigenvalues ---    0.32605   0.32962
 RFO step:  Lambda=-1.33360410D-02 EMin= 1.43508539D-02
 Quartic linear search produced a step of  0.87110.
 Iteration  1 RMS(Cart)=  0.03666512 RMS(Int)=  0.00976343
 Iteration  2 RMS(Cart)=  0.00471373 RMS(Int)=  0.00258847
 Iteration  3 RMS(Cart)=  0.00004084 RMS(Int)=  0.00258811
 Iteration  4 RMS(Cart)=  0.00000003 RMS(Int)=  0.00258811
 Variable       Old X    -DE/DX   Delta X   Delta X   Delta X     New X
                                 (Linear)    (Quad)   (Total)
    R1        2.96649   0.00232   0.05270  -0.02945   0.02370   2.99019
    R2        2.98040   0.00144   0.04326  -0.03597   0.00583   2.98623
    R3        2.94640   0.00167   0.04048  -0.02068   0.02125   2.96765
    R4        2.07071  -0.00227  -0.02335   0.00945  -0.01390   2.05681
    R5        2.94641   0.00167   0.04048  -0.02068   0.02124   2.96765
    R6        2.98041   0.00144   0.04324  -0.03597   0.00582   2.98623
    R7        2.07071  -0.00227  -0.02336   0.00946  -0.01391   2.05680
    R8        2.96788  -0.00003   0.03598  -0.03569  -0.00012   2.96776
    R9        2.94640   0.00167   0.04048  -0.02068   0.02124   2.96765
   R10        2.06731  -0.00107  -0.02759   0.01892  -0.00867   2.05864
   R11        2.98041   0.00144   0.04325  -0.03597   0.00582   2.98623
   R12        2.06731  -0.00107  -0.02759   0.01892  -0.00867   2.05864
   R13        2.96649   0.00232   0.05270  -0.02945   0.02369   2.99019
   R14        2.98040   0.00144   0.04325  -0.03597   0.00583   2.98623
   R15        2.07071  -0.00227  -0.02335   0.00945  -0.01390   2.05681
   R16        2.94640   0.00167   0.04048  -0.02068   0.02124   2.96765
   R17        2.96789  -0.00003   0.03597  -0.03569  -0.00012   2.96776
   R18        2.06730  -0.00107  -0.02758   0.01891  -0.00866   2.05864
   R19        2.07071  -0.00227  -0.02335   0.00945  -0.01390   2.05681
   R20        2.06731  -0.00107  -0.02759   0.01892  -0.00867   2.05864
    A1        1.56006  -0.00024  -0.00060   0.00277   0.00249   1.56255
    A2        1.58200  -0.00056  -0.00509  -0.00487  -0.01048   1.57152
    A3        2.30515  -0.00126  -0.02932  -0.02472  -0.06093   2.24421
    A4        1.52300   0.00012  -0.00815   0.02865   0.02102   1.54402
    A5        2.01053   0.00251   0.06398   0.04511   0.11329   2.12382
    A6        2.24569   0.00002  -0.00455  -0.01896  -0.03539   2.21030
    A7        1.58200  -0.00055  -0.00509  -0.00487  -0.01048   1.57152
    A8        1.56006  -0.00024  -0.00060   0.00277   0.00249   1.56254
    A9        2.30514  -0.00126  -0.02931  -0.02472  -0.06093   2.24421
   A10        1.52300   0.00012  -0.00815   0.02865   0.02103   1.54402
   A11        2.24571   0.00002  -0.00456  -0.01896  -0.03540   2.21031
   A12        2.01052   0.00251   0.06398   0.04511   0.11330   2.12382
   A13        1.57001   0.00033  -0.00006   0.00231   0.00280   1.57282
   A14        1.61860  -0.00012   0.00817  -0.02865  -0.02105   1.59754
   A15        2.22881  -0.00092  -0.02584  -0.00339  -0.03304   2.19577
   A16        1.57100   0.00047   0.00590  -0.00014   0.00530   1.57631
   A17        2.04298   0.00152   0.04320   0.03624   0.08146   2.12444
   A18        2.23662  -0.00065  -0.01708  -0.00325  -0.02529   2.21133
   A19        1.57099   0.00047   0.00589  -0.00013   0.00531   1.57630
   A20        1.61859  -0.00012   0.00817  -0.02865  -0.02105   1.59754
   A21        2.23664  -0.00065  -0.01708  -0.00326  -0.02530   2.21134
   A22        1.57000   0.00033  -0.00006   0.00232   0.00281   1.57281
   A23        2.04296   0.00152   0.04321   0.03624   0.08147   2.12443
   A24        2.22883  -0.00092  -0.02584  -0.00339  -0.03305   2.19578
   A25        1.58199  -0.00055  -0.00510  -0.00486  -0.01048   1.57151
   A26        1.52300   0.00012  -0.00815   0.02865   0.02103   1.54402
   A27        2.24568   0.00002  -0.00455  -0.01896  -0.03539   2.21029
   A28        1.56007  -0.00024  -0.00060   0.00276   0.00248   1.56255
   A29        2.30516  -0.00126  -0.02932  -0.02473  -0.06094   2.24421
   A30        2.01055   0.00251   0.06397   0.04511   0.11328   2.12383
   A31        1.61859  -0.00012   0.00817  -0.02865  -0.02105   1.59754
   A32        1.57001   0.00033  -0.00005   0.00231   0.00281   1.57282
   A33        2.22881  -0.00092  -0.02584  -0.00339  -0.03304   2.19577
   A34        1.57100   0.00047   0.00590  -0.00014   0.00530   1.57631
   A35        2.23662  -0.00065  -0.01708  -0.00325  -0.02529   2.21133
   A36        2.04299   0.00152   0.04319   0.03624   0.08144   2.12444
   A37        1.56007  -0.00024  -0.00059   0.00276   0.00248   1.56255
   A38        1.52300   0.00012  -0.00815   0.02865   0.02102   1.54402
   A39        2.01054   0.00251   0.06397   0.04511   0.11329   2.12383
   A40        1.58199  -0.00055  -0.00510  -0.00486  -0.01048   1.57151
   A41        2.30516  -0.00126  -0.02932  -0.02473  -0.06094   2.24421
   A42        2.24568   0.00002  -0.00455  -0.01896  -0.03538   2.21029
   A43        1.61859  -0.00012   0.00817  -0.02865  -0.02105   1.59754
   A44        1.57099   0.00047   0.00589  -0.00013   0.00530   1.57630
   A45        2.23665  -0.00065  -0.01709  -0.00326  -0.02531   2.21134
   A46        1.57000   0.00033  -0.00006   0.00232   0.00281   1.57281
   A47        2.22883  -0.00092  -0.02584  -0.00339  -0.03305   2.19578
   A48        2.04294   0.00152   0.04322   0.03624   0.08149   2.12443
    D1        0.01105  -0.00024  -0.00512  -0.00320  -0.00813   0.00292
    D2        1.53392  -0.00011  -0.01322   0.02554   0.01302   1.54694
    D3       -2.57945   0.00257   0.06429   0.08023   0.14201  -2.43744
    D4       -1.51183  -0.00036   0.00299  -0.03194  -0.02927  -1.54110
    D5        0.01104  -0.00024  -0.00512  -0.00320  -0.00813   0.00292
    D6        2.18087   0.00245   0.07239   0.05148   0.12086   2.30173
    D7        2.18088   0.00245   0.07239   0.05148   0.12085   2.30173
    D8       -2.57944   0.00257   0.06428   0.08022   0.14200  -2.43744
    D9       -0.40961   0.00525   0.14179   0.13490   0.27098  -0.13863
   D10       -0.01097   0.00023   0.00505   0.00312   0.00805  -0.00292
   D11       -1.58193  -0.00026  -0.00084   0.00313   0.00265  -1.57928
   D12        2.17152   0.00213   0.05113   0.05329   0.10367   2.27519
   D13        1.57156  -0.00032   0.00007  -0.00221  -0.00274   1.56882
   D14        0.00060  -0.00080  -0.00582  -0.00221  -0.00814  -0.00754
   D15       -2.52913   0.00159   0.04614   0.04795   0.09288  -2.43625
   D16       -2.40824   0.00068   0.01111   0.00884   0.01936  -2.38888
   D17        2.30398   0.00019   0.00522   0.00885   0.01396   2.31794
   D18       -0.22575   0.00258   0.05718   0.05901   0.11499  -0.11077
   D19        1.55892   0.00058   0.00526   0.00552   0.01110   1.57002
   D20       -0.01109   0.00023   0.00510   0.00321   0.00815  -0.00294
   D21       -2.19876  -0.00197  -0.05144  -0.04517  -0.09563  -2.29440
   D22       -0.00059   0.00079   0.00576   0.00218   0.00809   0.00749
   D23       -1.57060   0.00044   0.00560  -0.00013   0.00514  -1.56546
   D24        2.52491  -0.00176  -0.05094  -0.04851  -0.09865   2.42626
   D25       -2.10375  -0.00270  -0.07090  -0.07648  -0.14748  -2.25123
   D26        2.60943  -0.00305  -0.07107  -0.07879  -0.15042   2.45900
   D27        0.42176  -0.00525  -0.12761  -0.12717  -0.25421   0.16754
   D28       -0.01109   0.00023   0.00510   0.00321   0.00815  -0.00294
   D29        1.55892   0.00058   0.00526   0.00552   0.01110   1.57002
   D30       -2.19878  -0.00197  -0.05144  -0.04516  -0.09562  -2.29440
   D31       -1.57060   0.00044   0.00560  -0.00013   0.00514  -1.56546
   D32       -0.00059   0.00079   0.00576   0.00218   0.00809   0.00749
   D33        2.52490  -0.00176  -0.05094  -0.04850  -0.09863   2.42626
   D34        2.60943  -0.00305  -0.07107  -0.07880  -0.15043   2.45900
   D35       -2.10374  -0.00270  -0.07090  -0.07649  -0.14749  -2.25123
   D36        0.42175  -0.00525  -0.12760  -0.12717  -0.25421   0.16754
   D37       -1.58193  -0.00026  -0.00084   0.00313   0.00265  -1.57928
   D38       -0.01096   0.00023   0.00505   0.00312   0.00805  -0.00292
   D39        2.17154   0.00213   0.05112   0.05328   0.10366   2.27519
   D40        0.00060  -0.00080  -0.00582  -0.00221  -0.00814  -0.00754
   D41        1.57156  -0.00032   0.00007  -0.00222  -0.00274   1.56882
   D42       -2.52912   0.00159   0.04613   0.04795   0.09287  -2.43625
   D43        2.30399   0.00019   0.00521   0.00884   0.01396   2.31795
   D44       -2.40823   0.00068   0.01111   0.00884   0.01935  -2.38887
   D45       -0.22573   0.00258   0.05717   0.05900   0.11497  -0.11076
   D46        0.01104  -0.00023  -0.00502  -0.00317  -0.00810   0.00294
   D47       -1.60755  -0.00011  -0.01318   0.02548   0.01294  -1.59461
   D48        2.34846   0.00005  -0.00190   0.01057   0.00910   2.35756
   D49        1.62963  -0.00035   0.00315  -0.03182  -0.02914   1.60050
   D50        0.01104  -0.00023  -0.00502  -0.00317  -0.00810   0.00294
   D51       -2.31613  -0.00007   0.00626  -0.01807  -0.01194  -2.32807
   D52       -2.31613  -0.00007   0.00627  -0.01807  -0.01194  -2.32807
   D53        2.34846   0.00005  -0.00190   0.01058   0.00910   2.35756
   D54        0.02129   0.00021   0.00938  -0.00433   0.00526   0.02655
   D55        1.55893   0.00058   0.00527   0.00551   0.01109   1.57002
   D56       -0.00059   0.00079   0.00576   0.00218   0.00809   0.00749
   D57       -2.10377  -0.00270  -0.07089  -0.07648  -0.14747  -2.25124
   D58       -0.01109   0.00023   0.00510   0.00321   0.00815  -0.00294
   D59       -1.57061   0.00044   0.00559  -0.00012   0.00514  -1.56547
   D60        2.60939  -0.00305  -0.07106  -0.07878  -0.15041   2.45898
   D61       -2.19881  -0.00197  -0.05142  -0.04515  -0.09560  -2.29441
   D62        2.52485  -0.00176  -0.05093  -0.04848  -0.09861   2.42624
   D63        0.42167  -0.00525  -0.12758  -0.12715  -0.25417   0.16751
   D64       -1.58192  -0.00026  -0.00084   0.00312   0.00264  -1.57927
   D65        0.00060  -0.00080  -0.00582  -0.00221  -0.00814  -0.00754
   D66        2.30397   0.00019   0.00522   0.00884   0.01397   2.31794
   D67       -0.01097   0.00023   0.00505   0.00312   0.00805  -0.00292
   D68        1.57155  -0.00032   0.00006  -0.00221  -0.00274   1.56881
   D69       -2.40827   0.00068   0.01111   0.00885   0.01937  -2.38890
   D70        2.17149   0.00213   0.05114   0.05329   0.10369   2.27518
   D71       -2.52918   0.00159   0.04615   0.04797   0.09291  -2.43627
   D72       -0.22581   0.00258   0.05720   0.05902   0.11502  -0.11080
   D73        0.01105  -0.00024  -0.00512  -0.00320  -0.00813   0.00292
   D74       -1.51183  -0.00036   0.00299  -0.03194  -0.02927  -1.54109
   D75        2.18092   0.00244   0.07238   0.05147   0.12084   2.30176
   D76        1.53392  -0.00011  -0.01322   0.02554   0.01302   1.54694
   D77        0.01105  -0.00024  -0.00511  -0.00320  -0.00812   0.00292
   D78       -2.57939   0.00257   0.06428   0.08021   0.14198  -2.43741
   D79       -2.57938   0.00257   0.06428   0.08021   0.14198  -2.43741
   D80        2.18093   0.00244   0.07238   0.05147   0.12083   2.30176
   D81       -0.40951   0.00525   0.14178   0.13488   0.27094  -0.13857
   D82        0.00060  -0.00080  -0.00582  -0.00221  -0.00814  -0.00754
   D83        1.57155  -0.00032   0.00006  -0.00221  -0.00274   1.56881
   D84       -2.52920   0.00159   0.04616   0.04798   0.09293  -2.43628
   D85       -1.58192  -0.00026  -0.00084   0.00312   0.00264  -1.57927
   D86       -0.01096   0.00023   0.00505   0.00312   0.00804  -0.00292
   D87        2.17147   0.00213   0.05115   0.05330   0.10371   2.27518
   D88        2.30397   0.00019   0.00522   0.00885   0.01397   2.31793
   D89       -2.40827   0.00068   0.01111   0.00885   0.01937  -2.38890
   D90       -0.22584   0.00258   0.05721   0.05903   0.11503  -0.11080
   D91       -0.00059   0.00079   0.00576   0.00218   0.00809   0.00749
   D92        1.55893   0.00058   0.00527   0.00551   0.01110   1.57003
   D93       -2.10376  -0.00270  -0.07089  -0.07648  -0.14747  -2.25124
   D94       -1.57061   0.00044   0.00559  -0.00012   0.00514  -1.56547
   D95       -0.01109   0.00023   0.00509   0.00321   0.00815  -0.00294
   D96        2.60940  -0.00305  -0.07107  -0.07878  -0.15042   2.45898
   D97        2.52484  -0.00176  -0.05092  -0.04848  -0.09860   2.42624
   D98       -2.19883  -0.00197  -0.05141  -0.04515  -0.09559  -2.29442
   D99        0.42167  -0.00525  -0.12758  -0.12714  -0.25416   0.16751
   D100       0.01104  -0.00023  -0.00502  -0.00317  -0.00810   0.00294
   D101      -1.60756  -0.00011  -0.01318   0.02548   0.01295  -1.59461
   D102       2.34847   0.00005  -0.00191   0.01057   0.00909   2.35756
   D103       1.62963  -0.00035   0.00315  -0.03182  -0.02914   1.60050
   D104       0.01104  -0.00023  -0.00501  -0.00317  -0.00809   0.00294
   D105      -2.31612  -0.00007   0.00626  -0.01808  -0.01195  -2.32807
   D106      -2.31613  -0.00007   0.00627  -0.01807  -0.01194  -2.32807
   D107       2.34846   0.00005  -0.00190   0.01058   0.00910   2.35756
   D108       0.02130   0.00021   0.00937  -0.00433   0.00525   0.02655
         Item               Value     Threshold  Converged?
 Maximum Force            0.005253     0.000450     NO 
 RMS     Force            0.001652     0.000300     NO 
 Maximum Displacement     0.203612     0.001800     NO 
 RMS     Displacement     0.040501     0.001200     NO 
 Predicted change in Energy=-1.295132D-02
 GradGradGradGradGradGradGradGradGradGradGradGradGradGradGradGradGradGrad

                          Input orientation:                          
 ---------------------------------------------------------------------
 Center     Atomic      Atomic             Coordinates (Angstroms)
 Number     Number       Type             X           Y           Z
 ---------------------------------------------------------------------
      1          6           0       -2.588082    0.501577   -0.110546
      2          6           0       -2.397658   -1.037462   -0.425021
      3          6           0       -1.135846    0.540801    0.511264
      4          6           0       -0.957570   -0.988036    0.199401
      5          6           0       -1.691823    0.193745    1.938371
      6          1           0       -0.360281    1.268051    0.273856
      7          6           0       -2.961445   -1.386887    1.009280
      8          1           0       -2.703177   -1.592299   -1.310153
      9          6           0       -1.520004   -1.348990    1.631378
     10          1           0       -0.042287   -1.379411   -0.243135
     11          1           0       -1.059026   -2.116934    2.249771
     12          6           0       -3.142706    0.142992    1.314237
     13          1           0       -3.745589   -2.111143    1.226837
     14          1           0       -1.485831    0.728817    2.863526
     15          1           0       -2.949534    1.289290   -0.768960
     16          1           0       -4.049412    0.531369    1.776626
 ---------------------------------------------------------------------
                    Distance matrix (angstroms):
                    1          2          3          4          5
     1  C    0.000000
     2  C    1.582339   0.000000
     3  C    1.580245   2.227042   0.000000
     4  C    2.230153   1.570413   1.570473   0.000000
     5  C    2.257454   2.756754   1.570411   2.227049   0.000000
     6  H    2.387120   3.155111   1.089383   2.335000   2.386996
     7  C    2.227040   1.580245   2.701261   2.197840   2.230144
     8  H    2.415910   1.088414   3.213130   2.385588   3.842616
     9  C    2.756753   2.257454   2.230144   1.580246   1.582339
    10  H    3.168086   2.387003   2.334996   1.089384   3.155116
    11  H    3.842618   3.179891   3.176769   2.342802   2.415914
    12  C    1.570413   2.230154   2.197841   2.701277   1.580246
    13  H    3.155110   2.387120   3.788880   3.176482   3.168081
    14  H    3.179890   3.842618   2.385576   3.213130   1.088415
    15  H    1.088416   2.415913   2.342792   3.176768   3.179889
    16  H    2.387005   3.168086   3.176491   3.788893   2.387127
                    6          7          8          9         10
     6  H    0.000000
     7  C    3.788878   0.000000
     8  H    4.022418   2.342791   0.000000
[...]
 ! D80   D(14,5,9,7)           134.9984         -DE/DX =    0.0                 !
 ! D81   D(14,5,9,11)           -0.0089         -DE/DX =    0.0                 !
 ! D82   D(3,5,12,1)            -0.0118         -DE/DX =    0.0                 !
 ! D83   D(3,5,12,7)            89.9897         -DE/DX =    0.0                 !
 ! D84   D(3,5,12,16)         -134.9966         -DE/DX =    0.0                 !
 ! D85   D(9,5,12,1)           -90.0087         -DE/DX =    0.0                 !
 ! D86   D(9,5,12,7)            -0.0072         -DE/DX =    0.0                 !
 ! D87   D(9,5,12,16)          135.0065         -DE/DX =    0.0                 !
 ! D88   D(14,5,12,1)          135.0029         -DE/DX =    0.0                 !
 ! D89   D(14,5,12,7)         -134.9956         -DE/DX =    0.0                 !
 ! D90   D(14,5,12,16)           0.0182         -DE/DX =    0.0                 !
 ! D91   D(2,7,9,4)              0.0118         -DE/DX =    0.0                 !
 ! D92   D(2,7,9,5)             90.0031         -DE/DX =    0.0                 !
 ! D93   D(2,7,9,11)          -134.9982         -DE/DX =    0.0                 !
 ! D94   D(12,7,9,4)           -89.9985         -DE/DX =    0.0                 !
 ! D95   D(12,7,9,5)            -0.0072         -DE/DX =    0.0                 !
 ! D96   D(12,7,9,11)          134.9915         -DE/DX =    0.0                 !
 ! D97   D(13,7,9,4)           135.0209         -DE/DX =    0.0                 !
 ! D98   D(13,7,9,5)          -134.9878         -DE/DX =    0.0                 !
 ! D99   D(13,7,9,11)            0.0109         -DE/DX =    0.0                 !
 ! D100  D(2,7,12,1)             0.0072         -DE/DX =    0.0                 !
 ! D101  D(2,7,12,5)           -89.9913         -DE/DX =    0.0                 !
 ! D102  D(2,7,12,16)          134.9792         -DE/DX =    0.0                 !
 ! D103  D(9,7,12,1)            90.0057         -DE/DX =    0.0                 !
 ! D104  D(9,7,12,5)             0.0072         -DE/DX =    0.0                 !
 ! D105  D(9,7,12,16)         -135.0223         -DE/DX =    0.0                 !
 ! D106  D(13,7,12,1)         -135.0223         -DE/DX =    0.0                 !
 ! D107  D(13,7,12,5)          134.9792         -DE/DX =    0.0                 !
 ! D108  D(13,7,12,16)          -0.0502         -DE/DX =    0.0                 !
 --------------------------------------------------------------------------------
 GradGradGradGradGradGradGradGradGradGradGradGradGradGradGradGradGradGrad

 1\1\GINC-C-1-0\Freq\RB3LYP\6-31G(d)\C8H8\TY13946\08-Feb-2018\0\\#N Geo
 m=AllCheck Guess=TCheck SCRF=Check GenChk RB3LYP/6-31G(d) Freq\\Title\
 \0,1\C,-2.5755941666,0.4942388067,-0.0969011699\C,-2.3957462207,-1.035
 1351883,-0.4053330768\C,-1.1261198041,0.5430191185,0.5051994879\C,-0.9
 463126911,-0.9860787617,0.1970279218\C,-1.7029620683,0.1895852301,1.92
 23939484\H,-0.3845870344,1.3184278058,0.3021227385\C,-2.9727379916,-1.
 3885581229,1.0117198267\H,-2.6739316363,-1.5267119481,-1.3398255028\C,
 -1.5232653806,-1.3398188178,1.6140228893\H,-0.0607276123,-1.438283949,
 -0.2542138393\H,-1.1007659668,-2.0760006683,2.3009297766\C,-3.15239655
 04,0.1404879558,1.3202350405\H,-3.7140188186,-2.1640546357,1.215379914
 2\H,-1.4248420031,0.6811489283,2.8569126889\H,-2.9980283007,1.23043356
 04,-0.7838343763\H,-4.0382337544,0.5927806862,1.7708937323\\Version=AS
 64L-G09RevD.01\State=1-A\HF=-309.4603786\RMSD=1.610e-09\RMSF=6.904e-05
 \ZeroPoint=0.1341583\Thermal=0.1386711\Dipole=-0.0000001,0.,0.\DipoleD
 eriv=0.0203051,-0.0442039,0.0413306,-0.0443318,0.071935,-0.0719919,0.0
 413996,-0.0719309,0.0620095,0.0058433,0.0194645,0.0370155,0.0194392,0.
 0292339,0.065402,0.0369224,0.0652823,0.1192416,0.0731557,0.0820406,-0.
 0214622,0.0819255,0.0805388,-0.0224468,-0.0213874,-0.0224155,0.000689,
 0.1065555,-0.0571504,-0.0569102,-0.0570771,0.0239618,0.0290773,-0.0570
 058,0.0291505,0.023866,0.0059338,0.0194146,0.0370001,0.0195007,0.02923
 26,0.0653815,0.0371234,0.0653496,0.1191523,-0.0855717,-0.1286839,0.033
 7119,-0.1285925,-0.0970231,0.0352699,0.0336479,0.0352224,0.0282546,0.0
 730847,0.081969,-0.0214554,0.0819296,0.0805709,-0.0224976,-0.0215424,-
 0.0225847,0.0007277,0.0201461,-0.030597,-0.0581757,-0.0305803,-0.01661
 18,-0.1027812,-0.0581294,-0.1027646,-0.1578642,0.0202085,-0.0442789,0.
 0413297,-0.0442172,0.0719467,-0.0720459,0.0412281,-0.0719425,0.0620944
 ,-0.1379883,0.0896171,0.0893711,0.0895736,-0.008257,-0.0455931,0.08945
 87,-0.0456646,-0.0080948,-0.0024726,0.0695972,-0.064943,0.0695654,-0.0
 837902,0.1131246,-0.0649031,0.1131129,-0.068062,0.1066449,-0.0571975,-
 0.0569313,-0.0571218,0.0239829,0.0290533,-0.0568265,0.0290506,0.023755
 7,-0.0854655,-0.1286281,0.0337489,-0.1286132,-0.0970482,0.035295,0.033
 8217,0.0353765,0.0281736,0.0201712,-0.0305754,-0.058102,-0.0305926,-0.
 0166109,-0.1027596,-0.0581486,-0.1027751,-0.1578902,-0.0024444,0.06955
 45,-0.0648805,0.0695908,-0.0837947,0.113129,-0.064918,0.1131294,-0.068
 0857,-0.1381063,0.0896576,0.0893526,0.0896018,-0.0082666,-0.0456165,0.
 0892596,-0.0455964,-0.0079673\Polar=66.7842198,0.0006672,66.7793651,-0
 .0009288,-0.0009895,66.7819276\PG=C01 [X(C8H8)]\NImag=0\\0.40118389,-0
 .08998241,0.50618917,0.08398731,-0.14637130,0.48599736,-0.04274026,0.0
 1853511,-0.00179224,0.37194101,0.01029387,-0.15282857,-0.03095810,0.03
 957447,0.41924799,-0.00585786,-0.01046690,-0.05808182,0.07515638,0.132
 79951,0.60215963,-0.14162242,-0.01499531,-0.03507457,-0.02587483,-0.02
 194789,-0.01672416,0.50858528,0.00250755,-0.05158506,0.01011475,-0.023
 66884,-0.03835811,-0.01705019,0.16627977,0.52358892,-0.04698956,0.0024
 6156,-0.06060743,-0.02532777,-0.02654223,-0.00219551,-0.04356587,-0.04
 551019,0.36139355,-0.03859445,0.02859344,-0.00816360,-0.14311301,0.005
 41681,-0.02828762,-0.05512509,0.00021094,0.00730727,0.57634032,0.03384
 938,-0.03468834,-0.00257854,-0.00577421,-0.04356441,-0.01095850,0.0206
 4563,-0.15340216,-0.02629151,-0.11584065,0.40883635,-0.01733209,0.0047
 9981,0.00690370,-0.04730934,-0.00691537,-0.06704832,0.01037063,-0.0174
 6453,-0.04543635,-0.11562406,0.05903914,0.40839036,-0.01798065,-0.0014
 1839,-0.02319845,0.00064817,0.00004687,0.00009234,-0.06057938,-0.01590
 959,0.04315425,0.00172156,0.01471721,0.02879599,0.37198714,0.00331485,
 0.00960569,0.01740280,0.00004809,0.00069948,0.00015650,-0.01884980,-0.
 05365414,0.02740517,0.00824810,-0.02582353,-0.02573014,0.03956622,0.41
 924286,-0.02085941,0.00562330,-0.05801334,0.00009213,0.00015695,0.0009
 2650,0.02820750,0.01093151,-0.13949179,0.01784726,-0.02341412,-0.04232
 630,0.07519808,0.13281477,0.60211870,-0.00486168,-0.01487287,0.0091216
 9,-0.00176539,-0.00025853,-0.00068018,-0.17692889,-0.13320043,0.034885
 37,0.00850460,0.00348762,-0.00424785,-0.00305397,-0.00088782,-0.001651
 37,0.17988548,0.00271682,0.00469952,-0.00374957,-0.00047150,-0.0023632
 8,-0.00095412,-0.13319059,-0.18883499,0.03648937,-0.01711780,-0.005024
 25,0.00701989,0.00211274,-0.00020499,0.00009474,0.14668089,0.19301881,
 -0.00286238,-0.01146035,0.00399958,-0.00175473,-0.00213577,-0.00268286
 ,0.03487502,0.03648313,-0.05907732,-0.00735539,-0.00188255,0.00034521,
 0.01345403,0.01671339,0.00708102,-0.03842608,-0.04018219,0.05013774,0.
 00682843,-0.00355359,0.00931612,-0.06058399,-0.01885547,0.02823794,0.0
 0080182,0.00021564,-0.00004638,-0.05885307,-0.01815395,0.01881285,-0.0
 2586796,-0.02193604,-0.01671951,-0.00043507,0.00017523,-0.00004661,0.5
 0839089,-0.01355423,-0.05229936,0.02358410,-0.01591536,-0.05364835,0.0
 1093869,0.00021602,0.00085634,-0.00005541,-0.00642529,0.00878344,0.005
 43392,-0.02365666,-0.03833865,-0.01704843,0.00017509,-0.00041964,-0.00
 004882,0.16627682,0.52361451,0.01614053,0.02800489,-0.02093044,0.04319
 518,0.02742333,-0.13957150,-0.00004844,-0.00005561,0.00062977,0.020615
 96,0.01050339,-0.01625470,-0.02532340,-0.02654007,-0.00219967,-0.00004
 575,-0.00004819,-0.00059060,-0.04375439,-0.04560824,0.36156303,0.00001
 160,-0.00041433,0.00616063,-0.06745163,-0.03168983,-0.06024488,-0.0029
 3744,-0.00155710,-0.00073616,0.00546311,-0.01227317,-0.01797143,-0.000
 57908,0.00004207,0.00007948,0.00034519,-0.00105681,-0.00080492,0.00520
 022,0.00977149,0.00626930,0.05933415,-0.00872139,0.00091973,-0.0199790
 9,-0.03168589,-0.10550646,-0.10644948,-0.00134620,-0.00325364,-0.00060
 410,-0.00096972,0.00015470,0.00424366,0.00004218,-0.00052906,0.0001400
 0,-0.00085896,0.00000271,-0.00106481,0.00677189,0.00608089,0.00592591,
 0.03489197,0.10125173,0.00205607,0.00068305,0.00290148,-0.06023647,-0.
 10644479,-0.25187438,0.00033698,0.00057643,-0.00062031,0.00122524,0.00
 019440,-0.00177656,0.00007900,0.00013936,-0.00033741,0.00018878,0.0000
 2918,0.00026054,-0.00882843,-0.01068910,-0.00744661,0.06632825,0.11722
 008,0.26242596,0.00067868,-0.00012003,0.00010777,-0.01797416,0.0033173
 0,-0.02085274,0.00682676,-0.01354358,0.01613683,-0.06444165,-0.0056629
 3,0.04619527,-0.04273955,0.01029201,-0.00586302,-0.00085394,0.00013370
 ,0.00025884,-0.14154210,0.00249681,-0.04694906,-0.00213231,0.00092196,
 -0.00073514,0.40114066,-0.00011902,0.00082561,-0.00019200,-0.00142184,
 0.00960523,0.00562652,-0.00354327,-0.05227778,0.02799957,0.00358730,-0
 .05256176,0.01966255,0.01853140,-0.15282970,-0.01046638,0.00138264,-0.
 00325657,0.00170030,-0.01499555,-0.05159219,0.00246249,0.00033150,-0.0
 0160914,0.00084628,-0.08998400,0.50619028,0.00010839,-0.00019147,0.000
 78566,-0.02319273,0.01740347,-0.05801936,0.00931196,0.02357869,-0.0209
 2826,0.03020400,0.03253140,-0.13681071,-0.00178840,-0.03095653,-0.0580
 8140,-0.00059135,0.00115148,-0.00269927,-0.03504295,0.01010912,-0.0606
 0291,-0.00102781,0.00231536,-0.00306877,0.08394361,-0.14638278,0.48603
 944,-0.00209399,0.00074163,-0.00067257,-0.00690702,0.00842304,0.012744
 01,0.00439783,-0.00006749,-0.00301234,-0.23121364,0.09277891,0.0925756
 8,-0.00063417,-0.00063326,-0.00071107,0.00046759,0.00073197,0.00040091
 ,-0.00329954,-0.00091769,0.00057404,0.00180950,-0.00035666,-0.00036761
 ,-0.00193584,0.00019576,-0.00120161,0.23969835,0.00139988,-0.00308346,
 0.00052713,-0.00288792,0.00080319,0.00465734,0.02053729,0.00191124,-0.
 00820511,0.09277447,-0.09692070,-0.04725572,0.00017064,-0.00235479,-0.
 00112812,-0.00120502,0.00196588,0.00064422,-0.00238305,-0.00176146,0.0
 0101403,0.00070531,0.00091168,-0.00013792,-0.00908876,0.00523222,-0.00
 081901,-0.10217010,0.09179732,-0.00181452,0.00144717,-0.00163232,-0.00
 646635,0.00870453,0.00992588,0.00009488,0.00069892,-0.00248351,0.09258
 874,-0.04726304,-0.09670675,0.00065539,-0.00141598,-0.00382255,0.00010
 957,-0.00019258,0.00106423,0.00035010,0.00037947,-0.00174840,0.0014381
 9,-0.00051791,0.00077592,0.01488484,-0.01376100,0.00054106,-0.10193834
 ,0.05205121,0.09154614,-0.00054811,-0.00009503,0.00008834,-0.00188170,
 -0.00018823,-0.00066115,-0.00177360,-0.00206432,0.00135400,0.00864802,
 -0.01065403,0.00284656,-0.00175630,-0.00090098,0.00152704,0.00053883,-
 0.00093497,0.00036526,0.00162010,0.01819130,-0.01056289,0.00080763,0.0
 0046531,-0.00064585,-0.09090871,0.07208256,-0.06725847,0.00081843,0.00
 091286,-0.00113354,0.08516620,-0.00009503,-0.00043800,-0.00015385,-0.0
 0077889,-0.00086503,-0.00154629,-0.00081304,-0.00340565,0.00083776,-0.
 00136250,-0.00066530,-0.00136785,0.00740700,-0.00432624,0.01754588,0.0
 0022270,-0.00044126,0.00118840,0.00059704,0.00573247,-0.00538209,-0.00
 008164,0.00050664,-0.00052592,0.07207505,-0.17511873,0.11719706,0.0000
 3925,0.00081906,0.00049864,-0.07936890,0.17791230,0.00008768,-0.000153
 07,-0.00045974,-0.00095201,-0.00007742,-0.00406434,0.00050008,0.000287
 53,-0.00163028,-0.01324657,0.01158266,-0.00415245,0.00563056,-0.003118
 05,0.00991282,-0.00042374,0.00068047,0.00050969,0.00142249,0.00233222,
 -0.00351560,-0.00091608,0.00083468,-0.00070578,-0.06725167,0.11719540,
 -0.15887611,0.00037927,-0.00071851,0.00185678,0.07405254,-0.12905322,0
 .16001788,-0.06443837,0.00359561,0.03017741,0.00172527,0.00823709,0.01
 783702,-0.05884927,-0.00642716,0.02061883,0.00089194,-0.00016002,-0.00
 014434,-0.14319012,0.00540909,-0.02831963,-0.00388201,0.00150277,0.001
 19111,-0.05512304,0.00020284,0.00730683,-0.00238679,0.00069999,0.00092
 297,-0.03860754,0.02860742,-0.00816239,-0.00036345,-0.00012209,-0.0001
 2141,-0.00359669,0.00096402,0.00103891,0.57654321,-0.00565017,-0.05255
 948,0.03249861,0.01470565,-0.02581320,-0.02340603,-0.01815269,0.008783
 17,0.01050843,-0.00016044,0.00070348,0.00008385,-0.00578782,-0.0435577
 2,-0.01096635,0.00003687,-0.00077701,0.00011613,0.02063706,-0.15339646
 ,-0.02630963,0.00150368,-0.00226159,-0.00049341,0.03386362,-0.03469957
 ,-0.00258490,-0.00012229,-0.00054060,0.00006163,0.00162169,-0.00224797
 ,-0.00123223,-0.11587325,0.40883437,0.04615683,0.01963821,-0.13673860,
 0.02878593,-0.02572190,-0.04231817,0.01881726,0.00543119,-0.01625824,-
 0.00014230,0.00008414,0.00069237,-0.04735479,-0.00691932,-0.06705650,0
 .00096690,-0.00051708,-0.00215039,0.01037201,-0.01748248,-0.04544388,0
 .00229116,-0.00078259,-0.00216166,-0.01733048,0.00479376,0.00690591,-0
 .00012244,0.00006186,-0.00054127,-0.00010473,-0.00031271,-0.00096622,-
 0.11543276,0.05906018,0.40819021,-0.00085393,0.00138507,-0.00059310,-0
 .00305165,-0.00087723,-0.00165450,-0.00043527,0.00017577,-0.00004664,-
 0.00388173,0.00003684,0.00097006,-0.00176667,-0.00025935,-0.00068250,-
 0.00013010,-0.00033700,0.00008814,-0.17682643,-0.13317429,0.03497702,0
 .00099294,-0.00012010,0.00022022,-0.00488022,-0.01488811,0.00912135,-0
 .00070245,-0.00097434,0.00065704,0.00187916,0.00072946,-0.00017161,0.0
 0850081,0.00348875,-0.00425075,0.17980430,0.00013342,-0.00325913,0.001
 15168,0.00211995,-0.00020076,0.00009431,0.00017527,-0.00041987,-0.0000
 4796,0.00150311,-0.00077715,-0.00051716,-0.00047097,-0.00236121,-0.000
 95336,-0.00033709,-0.00016035,0.00009243,-0.13317516,-0.18886202,0.036
 57622,-0.00040145,0.00077056,0.00035884,0.00271579,0.00469672,-0.00374
 670,0.00038181,0.00047532,-0.00026795,-0.00092552,0.00054936,-0.000003
 91,-0.01711489,-0.00502522,0.00702461,0.14665515,0.19304672,0.00025976
 ,0.00170015,-0.00269782,0.01343751,0.01670086,0.00709144,-0.00004601,-
 0.00004763,-0.00059017,0.00118855,0.00011718,-0.00215053,-0.00175376,-
 0.00213359,-0.00268255,0.00008840,0.00009253,0.00016763,0.03498819,0.0
 3658727,-0.05915291,-0.00119990,-0.00120169,0.00173197,-0.00287349,-0.
 01146200,0.00400391,0.00086175,0.00031725,0.00083538,0.00095553,0.0007
 2125,0.00106735,-0.00735921,-0.00188167,0.00034996,-0.03850867,-0.0402
 7891,0.05019119,-0.00213433,0.00033110,-0.00102901,-0.00057917,0.00004
 103,0.00007836,0.00519806,0.00976876,0.00626633,-0.00238791,0.00150198
 ,0.00228967,-0.06743985,-0.03167879,-0.06022125,0.00099309,-0.00040115
 ,-0.00120049,-0.00293612,-0.00155769,-0.00073783,0.00014686,-0.0000801
 6,-0.00015259,0.00001138,-0.00041392,0.00615933,0.00035210,0.00075547,
 0.00099310,0.00102436,-0.00044646,-0.00050683,0.00545989,-0.01227623,-
 0.01797942,0.00034449,-0.00105636,-0.00080486,0.05933131,0.00092220,-0
 .00160909,0.00231486,0.00004132,-0.00052944,0.00014012,0.00677331,0.00
 608149,0.00592323,0.00070014,-0.00226120,-0.00078207,-0.03168369,-0.10
 550428,-0.10644472,-0.00011975,0.00077116,-0.00120253,-0.00134599,-0.0
 0325441,-0.00060538,-0.00008010,0.00005036,-0.00026939,-0.00872429,0.0
 0091924,-0.01997820,0.00001055,0.00053513,-0.00105677,0.00033489,0.001
 97614,0.00124582,-0.00096735,0.00015391,0.00424222,-0.00085928,0.00000
 241,-0.00106435,0.03488865,0.10125051,-0.00073804,0.00084570,-0.003066
 79,0.00007902,0.00013977,-0.00033695,-0.00882661,-0.01068723,-0.007438
 33,0.00092463,-0.00049311,-0.00216225,-0.06023015,-0.10644702,-0.25188
 836,0.00021979,0.00035849,0.00173284,0.00033793,0.00057758,-0.00061952
 ,-0.00015219,-0.00026928,-0.00031978,0.00205569,0.00068278,0.00290219,
 -0.00027083,-0.00079035,-0.00027880,-0.00012080,-0.00069718,0.00049455
 ,0.00122268,0.00019428,-0.00177926,0.00018861,0.00002911,0.00026037,0.
 06632379,0.11722030,0.26243004,-0.09089325,0.07206638,-0.06724054,-0.0
 0175714,-0.00090103,0.00152595,0.00161637,0.01819667,-0.01056938,-0.00
 359558,0.00162334,-0.00010614,-0.00188384,-0.00018788,-0.00066219,0.00
 187800,-0.00092579,0.00095499,-0.00177497,-0.00206263,0.00135330,0.001
 02439,0.00033476,-0.00012093,-0.00054866,-0.00009373,0.00008777,-0.000
 12594,0.00134052,-0.00053187,0.00008766,0.00018248,-0.00017035,0.00864
 567,-0.01065103,0.00284454,0.00053923,-0.00093530,0.00036503,0.0008077
 5,0.00046547,-0.00064572,0.08516163,0.07207394,-0.17512275,0.11720230,
 0.00740973,-0.00432568,0.01754450,0.00059526,0.00573179,-0.00538169,0.
 00096382,-0.00224833,-0.00031234,-0.00077846,-0.00086479,-0.00154684,0
 .00072877,0.00054899,0.00072086,-0.00081426,-0.00340491,0.00083751,-0.
 00044663,0.00197608,-0.00069714,-0.00009434,-0.00043758,-0.00015428,0.
 00072972,0.00013767,0.00075321,0.00018227,-0.00012564,0.00029647,-0.00
 136536,-0.00066365,-0.00136856,0.00022332,-0.00044107,0.00118843,-0.00
 008181,0.00050663,-0.00052582,-0.07936505,0.17791399,-0.06724741,0.117
 20399,-0.15888756,0.00563130,-0.00311795,0.00991310,0.00141907,0.00233
 227,-0.00351789,0.00104009,-0.00123366,-0.00096564,-0.00095483,-0.0000
 7829,-0.00406244,-0.00017206,-0.00000402,0.00106727,0.00050145,0.00028
 810,-0.00163100,-0.00050678,0.00124588,0.00049458,0.00008813,-0.000153
 55,-0.00045960,0.00052726,-0.00009878,0.00059552,-0.00016999,0.0002964
 6,-0.00008441,-0.01324489,0.01157841,-0.00414505,-0.00042393,0.0006807
 1,0.00051027,-0.00091599,0.00083464,-0.00070589,0.07404990,-0.12905566
 ,0.16002076,-0.00194115,0.00020362,-0.00119520,-0.00063449,-0.00063226
 ,-0.00070891,-0.00329991,-0.00091660,0.00057121,-0.00036339,-0.0001219
 7,-0.00012144,-0.00688533,0.00841349,0.01273847,-0.00070173,0.00038148
 ,0.00086230,0.00440082,-0.00006654,-0.00301039,0.00035167,0.00001102,-
 0.00027049,-0.00209278,0.00074086,-0.00067070,-0.00026777,0.00023483,0
 .00023416,-0.00012528,0.00072945,0.00052731,-0.23132950,0.09281661,0.0
 9248304,0.00046752,0.00073223,0.00040116,0.00180812,-0.00035607,-0.000
 36780,0.00081869,0.00003908,0.00037869,0.23979452,-0.00908968,0.005233
 51,-0.00081379,0.00017014,-0.00235261,-0.00112598,-0.00238375,-0.00176
 156,0.00101312,-0.00012174,-0.00054084,0.00006236,-0.00288868,0.000801
 08,0.00466117,-0.00097412,0.00047527,0.00031815,0.02053940,0.00190981,
 -0.00819856,0.00075505,0.00053481,-0.00078994,0.00140168,-0.00308629,0
 .00052730,0.00023486,0.00007228,-0.00011956,0.00134108,0.00013785,-0.0
 0009883,0.09281127,-0.09693248,-0.04723152,-0.00120466,0.00196568,0.00
 064492,0.00070557,0.00091142,-0.00013802,0.00091281,0.00081923,-0.0007
 1856,-0.10220923,0.09181285,0.01490470,-0.01376473,0.00052808,0.000654
 19,-0.00141488,-0.00382333,0.00035229,0.00038096,-0.00174794,-0.000122
 20,0.00006271,-0.00054107,-0.00645585,0.00870700,0.00992327,0.00065787
 ,-0.00026841,0.00083471,0.00009919,0.00070202,-0.00248507,0.00099315,-
 0.00105660,-0.00027921,-0.00181539,0.00144805,-0.00163178,0.00023387,-
 0.00011952,0.00007267,-0.00053184,0.00075367,0.00059586,0.09246885,-0.
 04722730,-0.09657922,0.00010927,-0.00019194,0.00106450,0.00143770,-0.0
 0051777,0.00077594,-0.00113436,0.00049904,0.00185797,-0.10185143,0.052
 00773,0.09143461\\0.00002032,-0.00001859,0.00011324,0.00006787,-0.0000
 0838,0.00009314,-0.00010838,-0.00015848,-0.00007467,-0.00007444,0.0001
 2224,0.00014807,-0.00002005,0.00001791,-0.00011239,0.00003297,0.000014
 55,0.00001534,0.00004160,0.00018181,-0.00008020,-0.00001345,-0.0000016
 8,-0.00001176,-0.00006848,0.00000902,-0.00009384,0.00001647,-0.0000047
 2,-0.00003520,0.00001427,-0.00000334,0.00001136,0.00014151,-0.00014549
 ,0.00000666,-0.00001283,-0.00002155,0.00003121,-0.00000161,-0.00000132
 ,0.00001781,0.00000080,0.00000632,-0.00001742,-0.00003657,0.00001170,-
 0.00001134\\\@


 KINETICS       FACT
 ---------  =  -------
 MECHANISM     FICTION
 Job cpu time:       0 days  0 hours 19 minutes 47.4 seconds.
 File lengths (MBytes):  RWF=     39 Int=      0 D2E=      0 Chk=      3 Scr=      1
 Normal termination of Gaussian 09 at Thu Feb  8 15:59:12 2018.
