 Entering Gaussian System, Link 0=g09
 Input=H2O.gjf
 Output=H2O.log
 Initial command:
 /share/apps/g09/l1.exe "/tmp/Gau-10892.inp" -scrdir="/tmp/"
 Entering Link 1 = /share/apps/g09/l1.exe PID=     10893.
  
 Copyright (c) 1988,1990,1992,1993,1995,1998,2003,2009,2013,
            Gaussian, Inc.  All Rights Reserved.
  
 This is part of the Gaussian(R) 09 program.  It is based on
 the Gaussian(R) 03 system (copyright 2003, Gaussian, Inc.),
 the Gaussian(R) 98 system (copyright 1998, Gaussian, Inc.),
 the Gaussian(R) 94 system (copyright 1995, Gaussian, Inc.),
 the Gaussian 92(TM) system (copyright 1992, Gaussian, Inc.),
 the Gaussian 90(TM) system (copyright 1990, Gaussian, Inc.),
 the Gaussian 88(TM) system (copyright 1988, Gaussian, Inc.),
 the Gaussian 86(TM) system (copyright 1986, Carnegie Mellon
 University), and the Gaussian 82(TM) system (copyright 1983,
 Carnegie Mellon University). Gaussian is a federally registered
 trademark of Gaussian, Inc.
  
 This software contains proprietary and confidential information,
 including trade secrets, belonging to Gaussian, Inc.
  
 This software is provided under written license and may be
 used, copied, transmitted, or stored only in accord with that
 written license.
  
 The following legend is applicable only to US Government
 contracts under FAR:
  
                    RESTRICTED RIGHTS LEGEND
  
 Use, reproduction and disclosure by the US Government is
 subject to restrictions as set forth in subparagraphs (a)
 and (c) of the Commercial Computer Software - Restricted
 Rights clause in FAR 52.227-19.
  
 Gaussian, Inc.
 340 Quinnipiac St., Bldg. 40, Wallingford CT 06492
  
  
 ---------------------------------------------------------------
 Warning -- This program may not be used in any manner that
 competes with the business of Gaussian, Inc. or will provide
 assistance to any competitor of Gaussian, Inc.  The licensee
 of this program is prohibited from giving any competitor of
 Gaussian, Inc. access to this program.  By using this program,
 the user acknowledges that Gaussian, Inc. is engaged in the
 business of creating and licensing software in the field of
 computational chemistry and represents and warrants to the
 licensee that it is not a competitor of Gaussian, Inc. and that
 it will not use this program in any manner prohibited above.
 ---------------------------------------------------------------
  

 Cite this work as:
 Gaussian 09, Revision D.01,
 M. J. Frisch, G. W. Trucks, H. B. Schlegel, G. E. Scuseria, 
 M. A. Robb, J. R. Cheeseman, G. Scalmani, V. Barone, B. Mennucci, 
 G. A. Petersson, H. Nakatsuji, M. Caricato, X. Li, H. P. Hratchian, 
 A. F. Izmaylov, J. Bloino, G. Zheng, J. L. Sonnenberg, M. Hada, 
 M. Ehara, K. Toyota, R. Fukuda, J. Hasegawa, M. Ishida, T. Nakajima, 
 Y. Honda, O. Kitao, H. Nakai, T. Vreven, J. A. Montgomery, Jr., 
 J. E. Peralta, F. Ogliaro, M. Bearpark, J. J. Heyd, E. Brothers, 
 K. N. Kudin, V. N. Staroverov, T. Keith, R. Kobayashi, J. Normand, 
 K. Raghavachari, A. Rendell, J. C. Burant, S. S. Iyengar, J. Tomasi, 
 M. Cossi, N. Rega, J. M. Millam, M. Klene, J. E. Knox, J. B. Cross, 
 V. Bakken, C. Adamo, J. Jaramillo, R. Gomperts, R. E. Stratmann, 
 O. Yazyev, A. J. Austin, R. Cammi, C. Pomelli, J. W. Ochterski, 
 R. L. Martin, K. Morokuma, V. G. Zakrzewski, G. A. Voth, 
 P. Salvador, J. J. Dannenberg, S. Dapprich, A. D. Daniels, 
 O. Farkas, J. B. Foresman, J. V. Ortiz, J. Cioslowski, 
 and D. J. Fox, Gaussian, Inc., Wallingford CT, 2013.
 
 ******************************************
 Gaussian 09:  AS64L-G09RevD.01 24-Apr-2013
                 6-Feb-2018 
 ******************************************
 -------------------------------------------------
 # opt freq b3lyp/6-31(d) Integral(Grid=UltraFine)
 -------------------------------------------------
 1/14=-1,18=20,19=15,26=4,38=1/1,3;
 2/9=110,12=2,17=6,18=5,40=1/2;
 3/5=1,6=6,7=1,11=2,16=1,25=1,30=1,71=1,74=-5,75=-5/1,2,3;
 4//1;
 5/5=2,38=5/2;
 6/7=2,8=2,9=2,10=2,28=1/1;
 7//1,2,3,16;
 1/14=-1,18=20,19=15,26=4/3(2);
 2/9=110/2;
 99//99;
 2/9=110/2;
 3/5=1,6=6,7=1,11=2,16=1,25=1,30=1,71=1,74=-5,75=-5/1,2,3;
 4/5=5,16=3,69=1/1;
 5/5=2,38=5/2;
 7//1,2,3,16;
 1/14=-1,18=20,19=15,26=4/3(-5);
 2/9=110/2;
 6/7=2,8=2,9=2,10=2,19=2,28=1/1;
 99/9=1/99;
 -----
 Title
 -----
 Symbolic Z-matrix:
 Charge =  0 Multiplicity = 1
 O                     0.08231  -2.26777  -1.21859 
 H                     1.20938  -2.57745  -1.45973 
 H                    -0.38186  -1.8375   -2.23126 
 
 Add virtual bond connecting atoms H2         and O1         Dist= 2.26D+00.
 Add virtual bond connecting atoms H3         and O1         Dist= 2.26D+00.

 GradGradGradGradGradGradGradGradGradGradGradGradGradGradGradGradGradGrad
 Berny optimization.
 Initialization pass.
                           ----------------------------
                           !    Initial Parameters    !
                           ! (Angstroms and Degrees)  !
 --------------------------                            --------------------------
 ! Name  Definition              Value          Derivative Info.                !
 --------------------------------------------------------------------------------
 ! R1    R(1,2)                  1.1935         estimate D2E/DX2                !
 ! R2    R(1,3)                  1.1942         estimate D2E/DX2                !
 ! A1    A(2,1,3)              106.8114         estimate D2E/DX2                !
 --------------------------------------------------------------------------------
 Trust Radius=3.00D-01 FncErr=1.00D-07 GrdErr=1.00D-06
 Number of steps in this run=     20 maximum allowed number of steps=    100.
 GradGradGradGradGradGradGradGradGradGradGradGradGradGradGradGradGradGrad

                          Input orientation:                          
 ---------------------------------------------------------------------
 Center     Atomic      Atomic             Coordinates (Angstroms)
 Number     Number       Type             X           Y           Z
 ---------------------------------------------------------------------
      1          8           0        0.082310   -2.267770   -1.218590
      2          1           0        1.209380   -2.577450   -1.459730
      3          1           0       -0.381860   -1.837500   -2.231260
 ---------------------------------------------------------------------
                    Distance matrix (angstroms):
                    1          2          3
     1  O    0.000000
     2  H    1.193456   0.000000
     3  H    1.194189   1.916984   0.000000
 Stoichiometry    H2O
 Framework group  CS[SG(H2O)]
 Deg. of freedom     3
 Full point group                 CS      NOp   2
 Largest Abelian subgroup         CS      NOp   2
 Largest concise Abelian subgroup C1      NOp   1
                         Standard orientation:                         
 ---------------------------------------------------------------------
 Center     Atomic      Atomic             Coordinates (Angstroms)
 Number     Number       Type             X           Y           Z
 ---------------------------------------------------------------------
      1          8           0        0.000000    0.142338    0.000000
      2          1           0        0.958492   -0.568738    0.000000
      3          1           0       -0.958492   -0.569968    0.000000
 ---------------------------------------------------------------------
 Rotational constants (GHZ):    557.3968747    272.9133052    183.2098739
 Standard basis: 6-31G(d) (6D, 7F)
 There are    15 symmetry adapted cartesian basis functions of A'  symmetry.
 There are     4 symmetry adapted cartesian basis functions of A"  symmetry.
 There are    15 symmetry adapted basis functions of A'  symmetry.
 There are     4 symmetry adapted basis functions of A"  symmetry.
    19 basis functions,    36 primitive gaussians,    19 cartesian basis functions
     5 alpha electrons        5 beta electrons
       nuclear repulsion energy         7.3682548223 Hartrees.
 NAtoms=    3 NActive=    3 NUniq=    3 SFac= 1.00D+00 NAtFMM=   60 NAOKFM=F Big=F
 Integral buffers will be    131072 words long.
 Raffenetti 2 integral format.
 Two-electron integral symmetry is turned on.
 One-electron integrals computed using PRISM.
 NBasis=    19 RedAO= T EigKep=  4.48D-02  NBF=    15     4
 NBsUse=    19 1.00D-06 EigRej= -1.00D+00 NBFU=    15     4
 ExpMin= 1.61D-01 ExpMax= 5.48D+03 ExpMxC= 8.25D+02 IAcc=3 IRadAn=         5 AccDes= 0.00D+00
 Harris functional with IExCor=  402 and IRadAn=       5 diagonalized for initial guess.
 HarFok:  IExCor=  402 AccDes= 0.00D+00 IRadAn=         5 IDoV= 1 UseB2=F ITyADJ=14
 ICtDFT=  3500011 ScaDFX=  1.000000  1.000000  1.000000  1.000000
 FoFCou: FMM=F IPFlag=           0 FMFlag=      100000 FMFlg1=           0
         NFxFlg=           0 DoJE=T BraDBF=F KetDBF=T FulRan=T
         wScrn=  0.000000 ICntrl=     500 IOpCl=  0 I1Cent=   200000004 NGrid=           0
         NMat0=    1 NMatS0=      1 NMatT0=    0 NMatD0=    1 NMtDS0=    0 NMtDT0=    0
 Petite list used in FoFCou.
 Initial guess orbital symmetries:
       Occupied  (A') (A') (A') (A') (A")
       Virtual   (A') (A') (A') (A') (A") (A') (A') (A') (A') (A")
                 (A") (A') (A') (A')
 The electronic state of the initial guess is 1-A'.
 Keep R1 ints in memory in symmetry-blocked form, NReq=900632.
 Requested convergence on RMS density matrix=1.00D-08 within 128 cycles.
 Requested convergence on MAX density matrix=1.00D-06.
 Requested convergence on             energy=1.00D-06.
 No special actions if energy rises.
 Integral accuracy reduced to 1.0D-05 until final iterations.
 Initial convergence to 1.0D-05 achieved.  Increase integral accuracy.
 SCF Done:  E(RB3LYP) =  -76.3512951901     A.U. after   10 cycles
            NFock= 10  Conv=0.30D-08     -V/T= 2.0140

 **********************************************************************

            Population analysis using the SCF density.

 **********************************************************************

 Orbital symmetries:
       Occupied  (A') (A') (A') (A') (A")
       Virtual   (A') (A') (A') (A') (A') (A") (A') (A') (A') (A")
                 (A") (A') (A') (A')
 The electronic state is 1-A'.
 Alpha  occ. eigenvalues --  -19.17154  -0.92542  -0.45106  -0.35479  -0.28076
 Alpha virt. eigenvalues --   -0.00813   0.06232   0.69624   0.71520   0.88841
 Alpha virt. eigenvalues --    0.89236   1.05362   1.14118   1.77574   1.78470
 Alpha virt. eigenvalues --    1.80857   2.05022   2.21925   3.45778
          Condensed to atoms (all electrons):
               1          2          3
     1  O    8.271248   0.197149   0.197149
     2  H    0.197149   0.478990  -0.009032
     3  H    0.197149  -0.009032   0.479231
 Mulliken charges:
               1
     1  O   -0.665546
     2  H    0.332893
     3  H    0.332653
 Sum of Mulliken charges =   0.00000
 Mulliken charges with hydrogens summed into heavy atoms:
               1
     1  O    0.000000
 Electronic spatial extent (au):  <R**2>=             22.5042
 Charge=              0.0000 electrons
 Dipole moment (field-independent basis, Debye):
    X=              0.0008    Y=             -2.0230    Z=              0.0000  Tot=              2.0230
 Quadrupole moment (field-independent basis, Debye-Ang):
   XX=             -3.8237   YY=             -6.1223   ZZ=             -7.6049
   XY=              0.0018   XZ=              0.0000   YZ=              0.0000
 Traceless Quadrupole moment (field-independent basis, Debye-Ang):
   XX=              2.0266   YY=             -0.2720   ZZ=             -1.7546
   XY=              0.0018   XZ=              0.0000   YZ=              0.0000
 Octapole moment (field-independent basis, Debye-Ang**2):
  XXX=              0.0020  YYY=             -0.7529  ZZZ=              0.0000  XYY=             -0.0015
  XXY=             -1.7716  XXZ=              0.0000  XZZ=              0.0006  YZZ=             -0.1126
  YYZ=              0.0000  XYZ=              0.0000
 Hexadecapole moment (field-independent basis, Debye-Ang**3):
 XXXX=             -8.4495 YYYY=             -7.9109 ZZZZ=             -5.7129 XXXY=             -0.0010
 XXXZ=              0.0000 YYYX=             -0.0007 YYYZ=              0.0000 ZZZX=              0.0000
 ZZZY=              0.0000 XXYY=             -2.1362 XXZZ=             -2.9132 YYZZ=             -2.3588
 XXYZ=              0.0000 YYXZ=              0.0000 ZZXY=             -0.0010
 N-N= 7.368254822282D+00 E-N=-1.950369541219D+02  KE= 7.529605488376D+01
 Symmetry A'   KE= 7.062271018432D+01
 Symmetry A"   KE= 4.673344699445D+00
 Calling FoFJK, ICntrl=      2127 FMM=F ISym2X=1 I1Cent= 0 IOpClX= 0 NMat=1 NMatS=1 NMatT=0.
 ***** Axes restored to original set *****
 -------------------------------------------------------------------
 Center     Atomic                   Forces (Hartrees/Bohr)
 Number     Number              X              Y              Z
 -------------------------------------------------------------------
      1        8           0.048539969    0.008857147   -0.091908125
      2        1          -0.099394561    0.030511103    0.009508365
      3        1           0.050854592   -0.039368250    0.082399760
 -------------------------------------------------------------------
 Cartesian Forces:  Max     0.099394561 RMS     0.060284571

 GradGradGradGradGradGradGradGradGradGradGradGradGradGradGradGradGradGrad
 Berny optimization.
 FormGI is forming the generalized inverse of G from B-inverse, IUseBI=4.
 Internal  Forces:  Max     0.103826073 RMS     0.086173220
 Search for a local minimum.
 Step number   1 out of a maximum of   20
 All quantities printed in internal units (Hartrees-Bohrs-Radians)
 Mixed Optimization -- RFO/linear search
 Second derivative matrix not updated -- first step.
 The second derivative matrix:
                          R1        R2        A1
           R1           0.25149
           R2           0.00000   0.25094
           A1           0.00000   0.00000   0.16000
 ITU=  0
     Eigenvalues ---    0.16000   0.25094   0.25149
 RFO step:  Lambda=-7.02214621D-02 EMin= 1.60000000D-01
 Linear search not attempted -- first point.
 Maximum step size (   0.300) exceeded in Quadratic search.
    -- Step size scaled by   0.636
 Iteration  1 RMS(Cart)=  0.17413123 RMS(Int)=  0.00715927
 Iteration  2 RMS(Cart)=  0.00489469 RMS(Int)=  0.00001831
 Iteration  3 RMS(Cart)=  0.00002254 RMS(Int)=  0.00000000
 Iteration  4 RMS(Cart)=  0.00000000 RMS(Int)=  0.00000000
 ClnCor:  largest displacement from symmetrization is 3.23D-15 for atom     2.
 Variable       Old X    -DE/DX   Delta X   Delta X   Delta X     New X
                                 (Linear)    (Quad)   (Total)
    R1        2.25530  -0.10370   0.00000  -0.20504  -0.20504   2.05026
    R2        2.25669  -0.10383   0.00000  -0.20563  -0.20563   2.05106
    A1        1.86421  -0.02726   0.00000  -0.07532  -0.07532   1.78889
         Item               Value     Threshold  Converged?
 Maximum Force            0.103826     0.000450     NO 
 RMS     Force            0.086173     0.000300     NO 
 Maximum Displacement     0.185432     0.001800     NO 
 RMS     Displacement     0.175536     0.001200     NO 
 Predicted change in Energy=-3.362087D-02
 GradGradGradGradGradGradGradGradGradGradGradGradGradGradGradGradGradGrad

                          Input orientation:                          
 ---------------------------------------------------------------------
 Center     Atomic      Atomic             Coordinates (Angstroms)
 Number     Number       Type             X           Y           Z
 ---------------------------------------------------------------------
      1          8           0        0.092304   -2.265903   -1.237673
      2          1           0        1.111254   -2.535066   -1.495384
      3          1           0       -0.293728   -1.881751   -2.176523
 ---------------------------------------------------------------------
                    Distance matrix (angstroms):
                    1          2          3
     1  O    0.000000
     2  H    1.084952   0.000000
     3  H    1.085372   1.692556   0.000000
 Stoichiometry    H2O
 Framework group  CS[SG(H2O)]
 Deg. of freedom     3
 Full point group                 CS      NOp   2
 Largest Abelian subgroup         CS      NOp   2
 Largest concise Abelian subgroup C1      NOp   1
                         Standard orientation:                         
 ---------------------------------------------------------------------
 Center     Atomic      Atomic             Coordinates (Angstroms)
 Number     Number       Type             X           Y           Z
 ---------------------------------------------------------------------
      1          8           0        0.000000    0.135852    0.000000
      2          1           0        0.846278   -0.543071    0.000000
      3          1           0       -0.846278   -0.543741    0.000000
 ---------------------------------------------------------------------
 Rotational constants (GHZ):    611.8971347    350.0870963    222.6827470
 Standard basis: 6-31G(d) (6D, 7F)
 There are    15 symmetry adapted cartesian basis functions of A'  symmetry.
 There are     4 symmetry adapted cartesian basis functions of A"  symmetry.
 There are    15 symmetry adapted basis functions of A'  symmetry.
 There are     4 symmetry adapted basis functions of A"  symmetry.
    19 basis functions,    36 primitive gaussians,    19 cartesian basis functions
     5 alpha electrons        5 beta electrons
       nuclear repulsion energy         8.1150182674 Hartrees.
 NAtoms=    3 NActive=    3 NUniq=    3 SFac= 1.00D+00 NAtFMM=   60 NAOKFM=F Big=F
 Integral buffers will be    131072 words long.
 Raffenetti 2 integral format.
 Two-electron integral symmetry is turned on.
 One-electron integrals computed using PRISM.
 NBasis=    19 RedAO= T EigKep=  3.85D-02  NBF=    15     4
 NBsUse=    19 1.00D-06 EigRej= -1.00D+00 NBFU=    15     4
 Initial guess from the checkpoint file:  "/tmp/Gau-10893.chk"
 B after Tr=     0.000000    0.000000    0.000000
         Rot=    1.000000    0.000000    0.000000    0.000083 Ang=   0.01 deg.
 Initial guess orbital symmetries:
       Occupied  (A') (A') (A') (A') (A")
       Virtual   (A') (A') (A') (A') (A') (A') (A') (A') (A') (A')
                 (A') (A") (A") (A")
 ExpMin= 1.61D-01 ExpMax= 5.48D+03 ExpMxC= 8.25D+02 IAcc=2 IRadAn=         4 AccDes= 0.00D+00
 Harris functional with IExCor=  402 and IRadAn=       4 diagonalized for initial guess.
 HarFok:  IExCor=  402 AccDes= 0.00D+00 IRadAn=         4 IDoV= 1 UseB2=F ITyADJ=14
 ICtDFT=  3500011 ScaDFX=  1.000000  1.000000  1.000000  1.000000
 FoFCou: FMM=F IPFlag=           0 FMFlag=      100000 FMFlg1=           0
         NFxFlg=           0 DoJE=T BraDBF=F KetDBF=T FulRan=T
         wScrn=  0.000000 ICntrl=     500 IOpCl=  0 I1Cent=   200000004 NGrid=           0
         NMat0=    1 NMatS0=      1 NMatT0=    0 NMatD0=    1 NMtDS0=    0 NMtDT0=    0
 Petite list used in FoFCou.
 Keep R1 ints in memory in symmetry-blocked form, NReq=900632.
 Requested convergence on RMS density matrix=1.00D-08 within 128 cycles.
 Requested convergence on MAX density matrix=1.00D-06.
 Requested convergence on             energy=1.00D-06.
 No special actions if energy rises.
 Integral accuracy reduced to 1.0D-05 until final iterations.
 Initial convergence to 1.0D-05 achieved.  Increase integral accuracy.
 SCF Done:  E(RB3LYP) =  -76.3902866916     A.U. after   10 cycles
            NFock= 10  Conv=0.18D-08     -V/T= 2.0118
 Calling FoFJK, ICntrl=      2127 FMM=F ISym2X=1 I1Cent= 0 IOpClX= 0 NMat=1 NMatS=1 NMatT=0.
 ***** Axes restored to original set *****
 -------------------------------------------------------------------
 Center     Atomic                   Forces (Hartrees/Bohr)
 Number     Number              X              Y              Z
 -------------------------------------------------------------------
      1        8           0.040417727    0.007406068   -0.076642902
      2        1          -0.070595598    0.019740906    0.013841795
      3        1           0.030177871   -0.027146974    0.062801108
 -------------------------------------------------------------------
 Cartesian Forces:  Max     0.076642902 RMS     0.045606110

 GradGradGradGradGradGradGradGradGradGradGradGradGradGradGradGradGradGrad
 Berny optimization.
 Using GEDIIS/GDIIS optimizer.
 FormGI is forming the generalized inverse of G from B-inverse, IUseBI=4.
 Internal  Forces:  Max     0.074664721 RMS     0.061084056
 Search for a local minimum.
 Step number   2 out of a maximum of   20
 All quantities printed in internal units (Hartrees-Bohrs-Radians)
 Mixed Optimization -- RFO/linear search
 Update second derivatives using D2CorX and points    1    2
 DE= -3.90D-02 DEPred=-3.36D-02 R= 1.16D+00
 TightC=F SS=  1.41D+00  RLast= 3.00D-01 DXNew= 5.0454D-01 9.0000D-01
 Trust test= 1.16D+00 RLast= 3.00D-01 DXMaxT set to 5.05D-01
 The second derivative matrix:
                          R1        R2        A1
           R1           0.19480
           R2          -0.05690   0.19384
           A1           0.01295   0.01285   0.17992
 ITU=  1  0
 Use linear search instead of GDIIS.
     Eigenvalues ---    0.13067   0.18668   0.25122
 RFO step:  Lambda=-4.25536920D-03 EMin= 1.30668067D-01
 Quartic linear search produced a step of  1.06753.
 Iteration  1 RMS(Cart)=  0.12493223 RMS(Int)=  0.05522611
 Iteration  2 RMS(Cart)=  0.05019431 RMS(Int)=  0.00015641
 Iteration  3 RMS(Cart)=  0.00014413 RMS(Int)=  0.00000001
 Iteration  4 RMS(Cart)=  0.00000001 RMS(Int)=  0.00000000
 ClnCor:  largest displacement from symmetrization is 9.16D-16 for atom     2.
 Variable       Old X    -DE/DX   Delta X   Delta X   Delta X     New X
                                 (Linear)    (Quad)   (Total)
    R1        2.05026  -0.07449  -0.21889  -0.04660  -0.26549   1.78477
    R2        2.05106  -0.07466  -0.21952  -0.04722  -0.26674   1.78432
    A1        1.78889  -0.00841  -0.08040   0.14715   0.06674   1.85564
         Item               Value     Threshold  Converged?
 Maximum Force            0.074665     0.000450     NO 
 RMS     Force            0.061084     0.000300     NO 
 Maximum Displacement     0.174920     0.001800     NO 
 RMS     Displacement     0.172176     0.001200     NO 
 Predicted change in Energy=-2.945549D-02
 GradGradGradGradGradGradGradGradGradGradGradGradGradGradGradGradGradGrad

                          Input orientation:                          
 ---------------------------------------------------------------------
 Center     Atomic      Atomic             Coordinates (Angstroms)
 Number     Number       Type             X           Y           Z
 ---------------------------------------------------------------------
      1          8           0        0.127241   -2.259442   -1.304139
      2          1           0        1.018690   -2.503354   -1.498644
      3          1           0       -0.236102   -1.919924   -2.106797
 ---------------------------------------------------------------------
                    Distance matrix (angstroms):
                    1          2          3
     1  O    0.000000
     2  H    0.944461   0.000000
     3  H    0.944219   1.511537   0.000000
 Stoichiometry    H2O
 Framework group  CS[SG(H2O)]
 Deg. of freedom     3
 Full point group                 CS      NOp   2
 Largest Abelian subgroup         CS      NOp   2
 Largest concise Abelian subgroup C1      NOp   1
                         Standard orientation:                         
 ---------------------------------------------------------------------
 Center     Atomic      Atomic             Coordinates (Angstroms)
 Number     Number       Type             X           Y           Z
 ---------------------------------------------------------------------
      1          8           0        0.000000    0.113242    0.000000
      2          1           0        0.755768   -0.453168    0.000000
      3          1           0       -0.755768   -0.452766    0.000000
 ---------------------------------------------------------------------
 Rotational constants (GHZ):    880.6322865    438.9596028    292.9405688
 Standard basis: 6-31G(d) (6D, 7F)
 There are    15 symmetry adapted cartesian basis functions of A'  symmetry.
 There are     4 symmetry adapted cartesian basis functions of A"  symmetry.
 There are    15 symmetry adapted basis functions of A'  symmetry.
 There are     4 symmetry adapted basis functions of A"  symmetry.
    19 basis functions,    36 primitive gaussians,    19 cartesian basis functions
     5 alpha electrons        5 beta electrons
       nuclear repulsion energy         9.3159682255 Hartrees.
 NAtoms=    3 NActive=    3 NUniq=    3 SFac= 1.00D+00 NAtFMM=   60 NAOKFM=F Big=F
 Integral buffers will be    131072 words long.
 Raffenetti 2 integral format.
 Two-electron integral symmetry is turned on.
 One-electron integrals computed using PRISM.
 NBasis=    19 RedAO= T EigKep=  3.09D-02  NBF=    15     4
 NBsUse=    19 1.00D-06 EigRej= -1.00D+00 NBFU=    15     4
 Initial guess from the checkpoint file:  "/tmp/Gau-10893.chk"
 B after Tr=     0.000000    0.000000    0.000000
         Rot=    1.000000    0.000000    0.000000    0.000224 Ang=   0.03 deg.
 Initial guess orbital symmetries:
       Occupied  (A') (A') (A') (A') (A")
       Virtual   (A') (A') (A') (A') (A') (A') (A') (A') (A') (A')
                 (A') (A") (A") (A")
 ExpMin= 1.61D-01 ExpMax= 5.48D+03 ExpMxC= 8.25D+02 IAcc=2 IRadAn=         4 AccDes= 0.00D+00
 Harris functional with IExCor=  402 and IRadAn=       4 diagonalized for initial guess.
 HarFok:  IExCor=  402 AccDes= 0.00D+00 IRadAn=         4 IDoV= 1 UseB2=F ITyADJ=14
 ICtDFT=  3500011 ScaDFX=  1.000000  1.000000  1.000000  1.000000
 FoFCou: FMM=F IPFlag=           0 FMFlag=      100000 FMFlg1=           0
         NFxFlg=           0 DoJE=T BraDBF=F KetDBF=T FulRan=T
         wScrn=  0.000000 ICntrl=     500 IOpCl=  0 I1Cent=   200000004 NGrid=           0
         NMat0=    1 NMatS0=      1 NMatT0=    0 NMatD0=    1 NMtDS0=    0 NMtDT0=    0
 Petite list used in FoFCou.
 Keep R1 ints in memory in symmetry-blocked form, NReq=900632.
 Requested convergence on RMS density matrix=1.00D-08 within 128 cycles.
 Requested convergence on MAX density matrix=1.00D-06.
 Requested convergence on             energy=1.00D-06.
 No special actions if energy rises.
 Integral accuracy reduced to 1.0D-05 until final iterations.
 Initial convergence to 1.0D-05 achieved.  Increase integral accuracy.
 SCF Done:  E(RB3LYP) =  -76.4077553181     A.U. after   10 cycles
            NFock= 10  Conv=0.16D-08     -V/T= 2.0067
 Calling FoFJK, ICntrl=      2127 FMM=F ISym2X=1 I1Cent= 0 IOpClX= 0 NMat=1 NMatS=1 NMatT=0.
 ***** Axes restored to original set *****
 -------------------------------------------------------------------
 Center     Atomic                   Forces (Hartrees/Bohr)
 Number     Number              X              Y              Z
 -------------------------------------------------------------------
      1        8          -0.015450041   -0.002921637    0.029630230
      2        1           0.022182595   -0.005287614   -0.007711731
      3        1          -0.006732554    0.008209250   -0.021918499
 -------------------------------------------------------------------
 Cartesian Forces:  Max     0.029630230 RMS     0.015978552

 GradGradGradGradGradGradGradGradGradGradGradGradGradGradGradGradGradGrad
 Berny optimization.
 Using GEDIIS/GDIIS optimizer.
 FormGI is forming the generalized inverse of G from B-inverse, IUseBI=4.
 Internal  Forces:  Max     0.024174963 RMS     0.019857434
 Search for a local minimum.
 Step number   3 out of a maximum of   20
 All quantities printed in internal units (Hartrees-Bohrs-Radians)
 Mixed Optimization -- RFO/linear search
 Update second derivatives using D2CorX and points    2    3
 DE= -1.75D-02 DEPred=-2.95D-02 R= 5.93D-01
 TightC=F SS=  1.41D+00  RLast= 3.82D-01 DXNew= 8.4853D-01 1.1467D+00
 Trust test= 5.93D-01 RLast= 3.82D-01 DXMaxT set to 8.49D-01
 The second derivative matrix:
                          R1        R2        A1
           R1           0.31416
           R2           0.06322   0.31471
           A1           0.02835   0.02830   0.17874
 ITU=  1  1  0
 Use linear search instead of GDIIS.
     Eigenvalues ---    0.17098   0.25122   0.38542
 RFO step:  Lambda=-8.74903270D-05 EMin= 1.70980207D-01
 Quartic linear search produced a step of -0.17354.
 Iteration  1 RMS(Cart)=  0.02909566 RMS(Int)=  0.00053727
 Iteration  2 RMS(Cart)=  0.00059782 RMS(Int)=  0.00000015
 Iteration  3 RMS(Cart)=  0.00000011 RMS(Int)=  0.00000000
 ClnCor:  largest displacement from symmetrization is 1.88D-15 for atom     3.
 Variable       Old X    -DE/DX   Delta X   Delta X   Delta X     New X
                                 (Linear)    (Quad)   (Total)
    R1        1.78477   0.02389   0.04607   0.00002   0.04609   1.83087
    R2        1.78432   0.02417   0.04629   0.00069   0.04698   1.83129
    A1        1.85564  -0.00527  -0.01158  -0.02221  -0.03379   1.82184
         Item               Value     Threshold  Converged?
 Maximum Force            0.024175     0.000450     NO 
 RMS     Force            0.019857     0.000300     NO 
 Maximum Displacement     0.030951     0.001800     NO 
 RMS     Displacement     0.028990     0.001200     NO 
 Predicted change in Energy=-1.584015D-03
 GradGradGradGradGradGradGradGradGradGradGradGradGradGradGradGradGradGrad

                          Input orientation:                          
 ---------------------------------------------------------------------
 Center     Atomic      Atomic             Coordinates (Angstroms)
 Number     Number       Type             X           Y           Z
 ---------------------------------------------------------------------
      1          8           0        0.118743   -2.261071   -1.287761
      2          1           0        1.031030   -2.506320   -1.502842
      3          1           0       -0.239943   -1.915329   -2.118977
 ---------------------------------------------------------------------
                    Distance matrix (angstroms):
                    1          2          3
     1  O    0.000000
     2  H    0.968853   0.000000
     3  H    0.969078   1.531099   0.000000
 Stoichiometry    H2O
 Framework group  CS[SG(H2O)]
 Deg. of freedom     3
 Full point group                 CS      NOp   2
 Largest Abelian subgroup         CS      NOp   2
 Largest concise Abelian subgroup C1      NOp   1
                         Standard orientation:                         
 ---------------------------------------------------------------------
 Center     Atomic      Atomic             Coordinates (Angstroms)
 Number     Number       Type             X           Y           Z
 ---------------------------------------------------------------------
      1          8           0        0.000000    0.118799    0.000000
      2          1           0        0.765549   -0.475011    0.000000
      3          1           0       -0.765549   -0.475379    0.000000
 ---------------------------------------------------------------------
 Rotational constants (GHZ):    800.1736949    427.8145617    278.7697331
 Standard basis: 6-31G(d) (6D, 7F)
 There are    15 symmetry adapted cartesian basis functions of A'  symmetry.
 There are     4 symmetry adapted cartesian basis functions of A"  symmetry.
 There are    15 symmetry adapted basis functions of A'  symmetry.
 There are     4 symmetry adapted basis functions of A"  symmetry.
    19 basis functions,    36 primitive gaussians,    19 cartesian basis functions
     5 alpha electrons        5 beta electrons
       nuclear repulsion energy         9.0836349593 Hartrees.
 NAtoms=    3 NActive=    3 NUniq=    3 SFac= 1.00D+00 NAtFMM=   60 NAOKFM=F Big=F
 Integral buffers will be    131072 words long.
 Raffenetti 2 integral format.
 Two-electron integral symmetry is turned on.
 One-electron integrals computed using PRISM.
 NBasis=    19 RedAO= T EigKep=  3.21D-02  NBF=    15     4
 NBsUse=    19 1.00D-06 EigRej= -1.00D+00 NBFU=    15     4
 Initial guess from the checkpoint file:  "/tmp/Gau-10893.chk"
 B after Tr=     0.000000    0.000000    0.000000
         Rot=    1.000000    0.000000    0.000000   -0.000173 Ang=  -0.02 deg.
 Initial guess orbital symmetries:
       Occupied  (A') (A') (A') (A') (A")
       Virtual   (A') (A') (A') (A') (A') (A') (A') (A') (A') (A')
                 (A') (A") (A") (A")
 ExpMin= 1.61D-01 ExpMax= 5.48D+03 ExpMxC= 8.25D+02 IAcc=2 IRadAn=         4 AccDes= 0.00D+00
 Harris functional with IExCor=  402 and IRadAn=       4 diagonalized for initial guess.
 HarFok:  IExCor=  402 AccDes= 0.00D+00 IRadAn=         4 IDoV= 1 UseB2=F ITyADJ=14
 ICtDFT=  3500011 ScaDFX=  1.000000  1.000000  1.000000  1.000000
 FoFCou: FMM=F IPFlag=           0 FMFlag=      100000 FMFlg1=           0
         NFxFlg=           0 DoJE=T BraDBF=F KetDBF=T FulRan=T
         wScrn=  0.000000 ICntrl=     500 IOpCl=  0 I1Cent=   200000004 NGrid=           0
         NMat0=    1 NMatS0=      1 NMatT0=    0 NMatD0=    1 NMtDS0=    0 NMtDT0=    0
 Petite list used in FoFCou.
 Keep R1 ints in memory in symmetry-blocked form, NReq=900632.
 Requested convergence on RMS density matrix=1.00D-08 within 128 cycles.
 Requested convergence on MAX density matrix=1.00D-06.
 Requested convergence on             energy=1.00D-06.
 No special actions if energy rises.
 Integral accuracy reduced to 1.0D-05 until final iterations.
 Initial convergence to 1.0D-05 achieved.  Increase integral accuracy.
 SCF Done:  E(RB3LYP) =  -76.4089390395     A.U. after    9 cycles
            NFock=  9  Conv=0.27D-08     -V/T= 2.0078
 Calling FoFJK, ICntrl=      2127 FMM=F ISym2X=1 I1Cent= 0 IOpClX= 0 NMat=1 NMatS=1 NMatT=0.
 ***** Axes restored to original set *****
 -------------------------------------------------------------------
 Center     Atomic                   Forces (Hartrees/Bohr)
 Number     Number              X              Y              Z
 -------------------------------------------------------------------
      1        8          -0.000713889   -0.000034927    0.001001527
      2        1          -0.000650334    0.000506456   -0.001064795
      3        1           0.001364222   -0.000471529    0.000063268
 -------------------------------------------------------------------
 Cartesian Forces:  Max     0.001364222 RMS     0.000775642

 GradGradGradGradGradGradGradGradGradGradGradGradGradGradGradGradGradGrad
 Berny optimization.
 Using GEDIIS/GDIIS optimizer.
 FormGI is forming the generalized inverse of G from B-inverse, IUseBI=4.
 Internal  Forces:  Max     0.002286027 RMS     0.001415307
 Search for a local minimum.
 Step number   4 out of a maximum of   20
 All quantities printed in internal units (Hartrees-Bohrs-Radians)
 Mixed Optimization -- RFO/linear search
 Update second derivatives using D2CorX and points    2    3    4
 DE= -1.18D-03 DEPred=-1.58D-03 R= 7.47D-01
 TightC=F SS=  1.41D+00  RLast= 7.40D-02 DXNew= 1.4270D+00 2.2195D-01
 Trust test= 7.47D-01 RLast= 7.40D-02 DXMaxT set to 8.49D-01
 The second derivative matrix:
                          R1        R2        A1
           R1           0.39885
           R2           0.15055   0.40478
           A1           0.03142   0.03114   0.17433
 ITU=  1  1  1  0
 Use linear search instead of GDIIS.
     Eigenvalues ---    0.16922   0.25124   0.55750
 RFO step:  Lambda=-3.03074018D-05 EMin= 1.69217842D-01
 Quartic linear search produced a step of  0.00904.
 Iteration  1 RMS(Cart)=  0.00758119 RMS(Int)=  0.00003189
 Iteration  2 RMS(Cart)=  0.00002699 RMS(Int)=  0.00000000
 Iteration  3 RMS(Cart)=  0.00000000 RMS(Int)=  0.00000000
 ClnCor:  largest displacement from symmetrization is 2.99D-15 for atom     3.
 Variable       Old X    -DE/DX   Delta X   Delta X   Delta X     New X
                                 (Linear)    (Quad)   (Total)
    R1        1.83087  -0.00050   0.00042  -0.00032   0.00010   1.83097
    R2        1.83129  -0.00073   0.00042  -0.00122  -0.00079   1.83050
    A1        1.82184  -0.00229  -0.00031  -0.01275  -0.01305   1.80879
         Item               Value     Threshold  Converged?
 Maximum Force            0.002286     0.000450     NO 
 RMS     Force            0.001415     0.000300     NO 
 Maximum Displacement     0.007835     0.001800     NO 
 RMS     Displacement     0.007594     0.001200     NO 
 Predicted change in Energy=-1.511614D-05
 GradGradGradGradGradGradGradGradGradGradGradGradGradGradGradGradGradGrad

                          Input orientation:                          
 ---------------------------------------------------------------------
 Center     Atomic      Atomic             Coordinates (Angstroms)
 Number     Number       Type             X           Y           Z
 ---------------------------------------------------------------------
      1          8           0        0.117091   -2.261281   -1.284968
      2          1           0        1.028535   -2.504651   -1.505920
      3          1           0       -0.235796   -1.916787   -2.118692
 ---------------------------------------------------------------------
                    Distance matrix (angstroms):
                    1          2          3
     1  O    0.000000
     2  H    0.968906   0.000000
     3  H    0.968659   1.523026   0.000000
 Stoichiometry    H2O
 Framework group  CS[SG(H2O)]
 Deg. of freedom     3
 Full point group                 CS      NOp   2
 Largest Abelian subgroup         CS      NOp   2
 Largest concise Abelian subgroup C1      NOp   1
                         Standard orientation:                         
 ---------------------------------------------------------------------
 Center     Atomic      Atomic             Coordinates (Angstroms)
 Number     Number       Type             X           Y           Z
 ---------------------------------------------------------------------
      1          8           0        0.000000    0.119773    0.000000
      2          1           0        0.761513   -0.479291    0.000000
      3          1           0       -0.761513   -0.478891    0.000000
 ---------------------------------------------------------------------
 Rotational constants (GHZ):    787.2114793    432.3618083    279.0813657
 Standard basis: 6-31G(d) (6D, 7F)
 There are    15 symmetry adapted cartesian basis functions of A'  symmetry.
 There are     4 symmetry adapted cartesian basis functions of A"  symmetry.
 There are    15 symmetry adapted basis functions of A'  symmetry.
 There are     4 symmetry adapted basis functions of A"  symmetry.
    19 basis functions,    36 primitive gaussians,    19 cartesian basis functions
     5 alpha electrons        5 beta electrons
       nuclear repulsion energy         9.0871152633 Hartrees.
 NAtoms=    3 NActive=    3 NUniq=    3 SFac= 1.00D+00 NAtFMM=   60 NAOKFM=F Big=F
 Integral buffers will be    131072 words long.
 Raffenetti 2 integral format.
 Two-electron integral symmetry is turned on.
 One-electron integrals computed using PRISM.
 NBasis=    19 RedAO= T EigKep=  3.21D-02  NBF=    15     4
 NBsUse=    19 1.00D-06 EigRej= -1.00D+00 NBFU=    15     4
 Initial guess from the checkpoint file:  "/tmp/Gau-10893.chk"
 B after Tr=     0.000000    0.000000    0.000000
         Rot=    1.000000    0.000000    0.000000    0.000169 Ang=   0.02 deg.
 Initial guess orbital symmetries:
       Occupied  (A') (A') (A') (A') (A")
       Virtual   (A') (A') (A') (A') (A') (A') (A') (A') (A') (A')
                 (A') (A") (A") (A")
 Keep R1 ints in memory in symmetry-blocked form, NReq=900632.
 Requested convergence on RMS density matrix=1.00D-08 within 128 cycles.
 Requested convergence on MAX density matrix=1.00D-06.
 Requested convergence on             energy=1.00D-06.
 No special actions if energy rises.
 SCF Done:  E(RB3LYP) =  -76.4089539416     A.U. after    7 cycles
            NFock=  7  Conv=0.37D-08     -V/T= 2.0078
 Calling FoFJK, ICntrl=      2127 FMM=F ISym2X=1 I1Cent= 0 IOpClX= 0 NMat=1 NMatS=1 NMatT=0.
 ***** Axes restored to original set *****
 -------------------------------------------------------------------
 Center     Atomic                   Forces (Hartrees/Bohr)
 Number     Number              X              Y              Z
 -------------------------------------------------------------------
      1        8           0.000198704   -0.000067266    0.000004021
      2        1          -0.000148176    0.000033529    0.000058094
      3        1          -0.000050528    0.000033737   -0.000062115
 -------------------------------------------------------------------
 Cartesian Forces:  Max     0.000198704 RMS     0.000093112

 GradGradGradGradGradGradGradGradGradGradGradGradGradGradGradGradGradGrad
 Berny optimization.
 Using GEDIIS/GDIIS optimizer.
 FormGI is forming the generalized inverse of G from B-inverse, IUseBI=4.
 Internal  Forces:  Max     0.000161057 RMS     0.000107550
 Search for a local minimum.
 Step number   5 out of a maximum of   20
 All quantities printed in internal units (Hartrees-Bohrs-Radians)
 Mixed Optimization -- En-DIIS/RFO-DIIS
 Update second derivatives using D2CorX and points    2    3    4    5
 DE= -1.49D-05 DEPred=-1.51D-05 R= 9.86D-01
 TightC=F SS=  1.41D+00  RLast= 1.31D-02 DXNew= 1.4270D+00 3.9230D-02
 Trust test= 9.86D-01 RLast= 1.31D-02 DXMaxT set to 8.49D-01
 The second derivative matrix:
                          R1        R2        A1
           R1           0.39696
           R2           0.14790   0.40674
           A1           0.02040   0.03862   0.17614
 ITU=  1  1  1  1
 Use linear search instead of GDIIS.
     Eigenvalues ---    0.16975   0.25561   0.55448
 RFO step:  Lambda=-1.19614962D-07 EMin= 1.69748668D-01
 Quartic linear search produced a step of -0.02005.
 Iteration  1 RMS(Cart)=  0.00028112 RMS(Int)=  0.00000004
 Iteration  2 RMS(Cart)=  0.00000003 RMS(Int)=  0.00000000
 ClnCor:  largest displacement from symmetrization is 3.15D-15 for atom     2.
 Variable       Old X    -DE/DX   Delta X   Delta X   Delta X     New X
                                 (Linear)    (Quad)   (Total)
    R1        1.83097  -0.00016   0.00000  -0.00056  -0.00056   1.83041
    R2        1.83050   0.00008   0.00002   0.00037   0.00039   1.83089
    A1        1.80879   0.00004   0.00026  -0.00005   0.00021   1.80900
         Item               Value     Threshold  Converged?
 Maximum Force            0.000161     0.000450     YES
 RMS     Force            0.000108     0.000300     YES
 Maximum Displacement     0.000342     0.001800     YES
 RMS     Displacement     0.000281     0.001200     YES
 Predicted change in Energy=-6.611117D-08
 Optimization completed.
    -- Stationary point found.
                           ----------------------------
                           !   Optimized Parameters   !
                           ! (Angstroms and Degrees)  !
 --------------------------                            --------------------------
 ! Name  Definition              Value          Derivative Info.                !
 --------------------------------------------------------------------------------
 ! R1    R(1,2)                  0.9689         -DE/DX =   -0.0002              !
 ! R2    R(1,3)                  0.9687         -DE/DX =    0.0001              !
 ! A1    A(2,1,3)              103.6361         -DE/DX =    0.0                 !
 --------------------------------------------------------------------------------
 GradGradGradGradGradGradGradGradGradGradGradGradGradGradGradGradGradGrad

                          Input orientation:                          
 ---------------------------------------------------------------------
 Center     Atomic      Atomic             Coordinates (Angstroms)
 Number     Number       Type             X           Y           Z
 ---------------------------------------------------------------------
      1          8           0        0.117091   -2.261281   -1.284968
      2          1           0        1.028535   -2.504651   -1.505920
      3          1           0       -0.235796   -1.916787   -2.118692
 ---------------------------------------------------------------------
                    Distance matrix (angstroms):
                    1          2          3
     1  O    0.000000
     2  H    0.968906   0.000000
     3  H    0.968659   1.523026   0.000000
 Stoichiometry    H2O
 Framework group  CS[SG(H2O)]
 Deg. of freedom     3
 Full point group                 CS      NOp   2
 Largest Abelian subgroup         CS      NOp   2
 Largest concise Abelian subgroup C1      NOp   1
                         Standard orientation:                         
 ---------------------------------------------------------------------
 Center     Atomic      Atomic             Coordinates (Angstroms)
 Number     Number       Type             X           Y           Z
 ---------------------------------------------------------------------
      1          8           0        0.000000    0.119773    0.000000
      2          1           0        0.761513   -0.479291    0.000000
      3          1           0       -0.761513   -0.478891    0.000000
 ---------------------------------------------------------------------
 Rotational constants (GHZ):    787.2114793    432.3618083    279.0813657

 **********************************************************************

            Population analysis using the SCF density.

 **********************************************************************

 Orbital symmetries:
       Occupied  (A') (A') (A') (A') (A")
       Virtual   (A') (A') (A') (A') (A") (A') (A') (A') (A') (A")
                 (A") (A') (A') (A')
 The electronic state is 1-A'.
 Alpha  occ. eigenvalues --  -19.13819  -0.99787  -0.51709  -0.37225  -0.29119
 Alpha virt. eigenvalues --    0.06258   0.14809   0.77237   0.86091   0.89078
 Alpha virt. eigenvalues --    0.89510   1.06576   1.19349   1.72907   1.74640
 Alpha virt. eigenvalues --    1.77980   2.28050   2.57698   3.55185
          Condensed to atoms (all electrons):
               1          2          3
     1  O    8.289169   0.242549   0.242561
     2  H    0.242549   0.393747  -0.023414
     3  H    0.242561  -0.023414   0.393692
 Mulliken charges:
               1
     1  O   -0.774279
     2  H    0.387118
     3  H    0.387161
 Sum of Mulliken charges =   0.00000
 Mulliken charges with hydrogens summed into heavy atoms:
               1
     1  O    0.000000
 Electronic spatial extent (au):  <R**2>=             19.1873
 Charge=              0.0000 electrons
 Dipole moment (field-independent basis, Debye):
    X=             -0.0002    Y=             -2.0956    Z=              0.0000  Tot=              2.0956
 Quadrupole moment (field-independent basis, Debye-Ang):
   XX=             -4.2872   YY=             -5.9894   ZZ=             -7.2040
   XY=             -0.0006   XZ=              0.0000   YZ=              0.0000
 Traceless Quadrupole moment (field-independent basis, Debye-Ang):
   XX=              1.5397   YY=             -0.1625   ZZ=             -1.3771
   XY=             -0.0006   XZ=              0.0000   YZ=              0.0000
 Octapole moment (field-independent basis, Debye-Ang**2):
  XXX=             -0.0005  YYY=             -1.2173  ZZZ=              0.0000  XYY=              0.0003
  XXY=             -1.2129  XXZ=              0.0000  XZZ=             -0.0002  YZZ=             -0.3236
  YYZ=              0.0000  XYZ=              0.0000
 Hexadecapole moment (field-independent basis, Debye-Ang**3):
 XXXX=             -6.0620 YYYY=             -6.2954 ZZZZ=             -5.2144 XXXY=              0.0002
 XXXZ=              0.0000 YYYX=              0.0001 YYYZ=              0.0000 ZZZX=              0.0000
 ZZZY=              0.0000 XXYY=             -1.7417 XXZZ=             -2.1175 YYZZ=             -1.9682
 XXYZ=              0.0000 YYXZ=              0.0000 ZZXY=              0.0002
 N-N= 9.087115263272D+00 E-N=-1.987543790931D+02  KE= 7.581936767315D+01
 Symmetry A'   KE= 7.121940571119D+01
 Symmetry A"   KE= 4.599961961954D+00
 1\1\GINC-C-2-20\FOpt\RB3LYP\6-31G(d)\H2O1\TY13946\06-Feb-2018\0\\# opt
  freq b3lyp/6-31(d) Integral(Grid=UltraFine)\\Title\\0,1\O,0.117090986
 3,-2.2612813073,-1.2849683359\H,1.0285354429,-2.504651337,-1.505919909
 2\H,-0.2357964292,-1.9167873557,-2.1186917549\\Version=AS64L-G09RevD.0
 1\State=1-A'\HF=-76.4089539\RMSD=3.689e-09\RMSF=9.311e-05\Dipole=0.384
 4155,0.0696473,-0.7260453\Quadrupole=0.6668605,-0.6943341,0.0274736,-0
 .6592866,0.3535536,-0.4039597\PG=CS [SG(H2O1)]\\@


 HE THAT FOLLOWS NATURE IS NEVER LOST.

                             -- BACON
 Job cpu time:       0 days  0 hours  0 minutes 16.1 seconds.
 File lengths (MBytes):  RWF=      5 Int=      0 D2E=      0 Chk=      1 Scr=      1
 Normal termination of Gaussian 09 at Tue Feb  6 11:27:13 2018.
 Link1:  Proceeding to internal job step number  2.
 --------------------------------------------------------------------
 #N Geom=AllCheck Guess=TCheck SCRF=Check GenChk RB3LYP/6-31G(d) Freq
 --------------------------------------------------------------------
 1/10=4,29=7,30=1,38=1,40=1/1,3;
 2/12=2,40=1/2;
 3/5=1,6=6,7=1,11=2,14=-4,16=1,25=1,30=1,70=2,71=2,74=-5,75=-5,116=1,140=1/1,2,3;
 4/5=101/1;
 5/5=2,98=1/2;
 8/6=4,10=90,11=11/1;
 11/6=1,8=1,9=11,15=111,16=1/1,2,10;
 10/6=1/2;
 6/7=2,8=2,9=2,10=2,18=1,28=1/1;
 7/8=1,10=1,25=1/1,2,3,16;
 1/10=4,30=1/3;
 99//99;
 Structure from the checkpoint file:  "/tmp/Gau-10893.chk"
 -----
 Title
 -----
 Charge =  0 Multiplicity = 1
 Redundant internal coordinates found in file.
 O,0,0.1170909863,-2.2612813073,-1.2849683359
 H,0,1.0285354429,-2.504651337,-1.5059199092
 H,0,-0.2357964292,-1.9167873557,-2.1186917549
 Recover connectivity data from disk.

 GradGradGradGradGradGradGradGradGradGradGradGradGradGradGradGradGradGrad
 Berny optimization.
 Initialization pass.
                           ----------------------------
                           !    Initial Parameters    !
                           ! (Angstroms and Degrees)  !
 --------------------------                            --------------------------
 ! Name  Definition              Value          Derivative Info.                !
 --------------------------------------------------------------------------------
 ! R1    R(1,2)                  0.9689         calculate D2E/DX2 analytically  !
 ! R2    R(1,3)                  0.9687         calculate D2E/DX2 analytically  !
 ! A1    A(2,1,3)              103.6361         calculate D2E/DX2 analytically  !
 --------------------------------------------------------------------------------
 Trust Radius=3.00D-01 FncErr=1.00D-07 GrdErr=1.00D-07
 Number of steps in this run=      2 maximum allowed number of steps=      2.
 GradGradGradGradGradGradGradGradGradGradGradGradGradGradGradGradGradGrad

                          Input orientation:                          
 ---------------------------------------------------------------------
 Center     Atomic      Atomic             Coordinates (Angstroms)
 Number     Number       Type             X           Y           Z
 ---------------------------------------------------------------------
      1          8           0        0.117091   -2.261281   -1.284968
      2          1           0        1.028535   -2.504651   -1.505920
      3          1           0       -0.235796   -1.916787   -2.118692
 ---------------------------------------------------------------------
                    Distance matrix (angstroms):
                    1          2          3
     1  O    0.000000
     2  H    0.968906   0.000000
     3  H    0.968659   1.523026   0.000000
 Stoichiometry    H2O
 Framework group  CS[SG(H2O)]
 Deg. of freedom     3
 Full point group                 CS      NOp   2
 Largest Abelian subgroup         CS      NOp   2
 Largest concise Abelian subgroup C1      NOp   1
                         Standard orientation:                         
 ---------------------------------------------------------------------
 Center     Atomic      Atomic             Coordinates (Angstroms)
 Number     Number       Type             X           Y           Z
 ---------------------------------------------------------------------
      1          8           0        0.000000    0.119773    0.000000
      2          1           0        0.761513   -0.479291    0.000000
      3          1           0       -0.761513   -0.478891    0.000000
 ---------------------------------------------------------------------
 Rotational constants (GHZ):    787.2114793    432.3618083    279.0813657
 Standard basis: 6-31G(d) (6D, 7F)
 There are    15 symmetry adapted cartesian basis functions of A'  symmetry.
 There are     4 symmetry adapted cartesian basis functions of A"  symmetry.
 There are    15 symmetry adapted basis functions of A'  symmetry.
 There are     4 symmetry adapted basis functions of A"  symmetry.
    19 basis functions,    36 primitive gaussians,    19 cartesian basis functions
     5 alpha electrons        5 beta electrons
       nuclear repulsion energy         9.0871152633 Hartrees.
 NAtoms=    3 NActive=    3 NUniq=    3 SFac= 1.00D+00 NAtFMM=   60 NAOKFM=F Big=F
 Integral buffers will be    131072 words long.
 Raffenetti 2 integral format.
 Two-electron integral symmetry is turned on.
 One-electron integrals computed using PRISM.
 NBasis=    19 RedAO= T EigKep=  3.21D-02  NBF=    15     4
 NBsUse=    19 1.00D-06 EigRej= -1.00D+00 NBFU=    15     4
 Initial guess from the checkpoint file:  "/tmp/Gau-10893.chk"
 B after Tr=     0.000000    0.000000    0.000000
         Rot=    1.000000    0.000000    0.000000    0.000000 Ang=   0.00 deg.
 Initial guess orbital symmetries:
       Occupied  (A') (A') (A') (A') (A")
       Virtual   (A') (A') (A') (A') (A") (A') (A') (A') (A') (A")
                 (A") (A') (A') (A')
 Keep R1 ints in memory in symmetry-blocked form, NReq=900632.
 Requested convergence on RMS density matrix=1.00D-08 within 128 cycles.
 Requested convergence on MAX density matrix=1.00D-06.
 Requested convergence on             energy=1.00D-06.
 No special actions if energy rises.
 SCF Done:  E(RB3LYP) =  -76.4089539416     A.U. after    1 cycles
            NFock=  1  Conv=0.29D-09     -V/T= 2.0078
 DoSCS=F DFT=T ScalE2(SS,OS)=  1.000000  1.000000
 Range of M.O.s used for correlation:     1    19
 NBasis=    19 NAE=     5 NBE=     5 NFC=     0 NFV=     0
 NROrb=     19 NOA=     5 NOB=     5 NVA=    14 NVB=    14
 Symmetrizing basis deriv contribution to polar:
 IMax=3 JMax=2 DiffMx= 0.00D+00
 G2DrvN: will do     4 centers at a time, making    1 passes.
 Calling FoFCou, ICntrl=  3107 FMM=F I1Cent=   0 AccDes= 0.00D+00.
 End of G2Drv F.D. properties file   721 does not exist.
 End of G2Drv F.D. properties file   722 does not exist.
 End of G2Drv F.D. properties file   788 does not exist.
          IDoAtm=111
          Differentiating once with respect to electric field.
                with respect to dipole field.
          Differentiating once with respect to nuclear coordinates.
 Keep R1 ints in memory in symmetry-blocked form, NReq=878386.
          There are    12 degrees of freedom in the 1st order CPHF.  IDoFFX=6 NUNeed=     3.
      9 vectors produced by pass  0 Test12= 5.83D-16 8.33D-09 XBig12= 3.33D+00 1.28D+00.
 AX will form     9 AO Fock derivatives at one time.
      9 vectors produced by pass  1 Test12= 5.83D-16 8.33D-09 XBig12= 3.39D-01 2.91D-01.
      9 vectors produced by pass  2 Test12= 5.83D-16 8.33D-09 XBig12= 2.95D-03 2.76D-02.
      9 vectors produced by pass  3 Test12= 5.83D-16 8.33D-09 XBig12= 2.73D-06 8.51D-04.
      8 vectors produced by pass  4 Test12= 5.83D-16 8.33D-09 XBig12= 1.06D-09 1.65D-05.
      3 vectors produced by pass  5 Test12= 5.83D-16 8.33D-09 XBig12= 2.78D-13 1.97D-07.
 InvSVY:  IOpt=1 It=  1 EMax= 4.44D-16
 Solved reduced A of dimension    47 with     9 vectors.
 Isotropic polarizability for W=    0.000000        5.22 Bohr**3.
 End of Minotr F.D. properties file   721 does not exist.
 End of Minotr F.D. properties file   722 does not exist.
 End of Minotr F.D. properties file   788 does not exist.

 **********************************************************************

            Population analysis using the SCF density.

 **********************************************************************

 Orbital symmetries:
       Occupied  (A') (A') (A') (A') (A")
       Virtual   (A') (A') (A') (A') (A") (A') (A') (A') (A') (A")
                 (A") (A') (A') (A')
 The electronic state is 1-A'.
 Alpha  occ. eigenvalues --  -19.13819  -0.99787  -0.51709  -0.37225  -0.29119
 Alpha virt. eigenvalues --    0.06258   0.14809   0.77237   0.86091   0.89078
 Alpha virt. eigenvalues --    0.89510   1.06576   1.19349   1.72907   1.74640
 Alpha virt. eigenvalues --    1.77980   2.28050   2.57698   3.55185
          Condensed to atoms (all electrons):
               1          2          3
     1  O    8.289169   0.242549   0.242561
     2  H    0.242549   0.393747  -0.023414
     3  H    0.242561  -0.023414   0.393692
 Mulliken charges:
               1
     1  O   -0.774279
     2  H    0.387118
     3  H    0.387161
 Sum of Mulliken charges =   0.00000
 Mulliken charges with hydrogens summed into heavy atoms:
               1
     1  O    0.000000
 APT charges:
               1
     1  O   -0.491091
     2  H    0.245523
     3  H    0.245568
 Sum of APT charges =   0.00000
 APT charges with hydrogens summed into heavy atoms:
               1
     1  O    0.000000
 Electronic spatial extent (au):  <R**2>=             19.1873
 Charge=              0.0000 electrons
 Dipole moment (field-independent basis, Debye):
    X=             -0.0002    Y=             -2.0956    Z=              0.0000  Tot=              2.0956
 Quadrupole moment (field-independent basis, Debye-Ang):
   XX=             -4.2872   YY=             -5.9894   ZZ=             -7.2040
   XY=             -0.0006   XZ=              0.0000   YZ=              0.0000
 Traceless Quadrupole moment (field-independent basis, Debye-Ang):
   XX=              1.5397   YY=             -0.1625   ZZ=             -1.3771
   XY=             -0.0006   XZ=              0.0000   YZ=              0.0000
 Octapole moment (field-independent basis, Debye-Ang**2):
  XXX=             -0.0005  YYY=             -1.2173  ZZZ=              0.0000  XYY=              0.0003
  XXY=             -1.2129  XXZ=              0.0000  XZZ=             -0.0002  YZZ=             -0.3236
  YYZ=              0.0000  XYZ=              0.0000
 Hexadecapole moment (field-independent basis, Debye-Ang**3):
 XXXX=             -6.0620 YYYY=             -6.2954 ZZZZ=             -5.2144 XXXY=              0.0002
 XXXZ=              0.0000 YYYX=              0.0001 YYYZ=              0.0000 ZZZX=              0.0000
 ZZZY=              0.0000 XXYY=             -1.7417 XXZZ=             -2.1175 YYZZ=             -1.9682
 XXYZ=              0.0000 YYXZ=              0.0000 ZZXY=              0.0002
 N-N= 9.087115263272D+00 E-N=-1.987543790312D+02  KE= 7.581936764427D+01
 Symmetry A'   KE= 7.121940568904D+01
 Symmetry A"   KE= 4.599961955232D+00
  Exact polarizability:   7.395  -0.002   5.425   0.000   0.000   2.830
 Approx polarizability:   8.972  -0.003   6.757   0.000   0.000   3.082
 Calling FoFJK, ICntrl=    100127 FMM=F ISym2X=1 I1Cent= 0 IOpClX= 0 NMat=1 NMatS=1 NMatT=0.
 Full mass-weighted force constant matrix:
 Low frequencies ---  -27.5934   -0.0009    0.0013    0.0018   29.1541   55.2147
 Low frequencies --- 1713.3578 3726.5245 3848.3968
 Diagonal vibrational polarizability:
        0.0351521       0.6976769       0.0000000
 Harmonic frequencies (cm**-1), IR intensities (KM/Mole), Raman scattering
 activities (A**4/AMU), depolarization ratios for plane and unpolarized
 incident light, reduced masses (AMU), force constants (mDyne/A),
 and normal coordinates:
                      1                      2                      3
                     A'                     A'                     A'
 Frequencies --   1713.3575              3726.5245              3848.3968
 Red. masses --      1.0825                 1.0453                 1.0810
 Frc consts  --      1.8723                 8.5530                 9.4326
 IR Inten    --     75.7490                 1.6902                19.3423
  Atom  AN      X      Y      Z        X      Y      Z        X      Y      Z
     1   8     0.00   0.07   0.00     0.00   0.05   0.00     0.07   0.00   0.00
     2   1    -0.43  -0.56   0.00     0.59  -0.40   0.00    -0.55   0.43   0.00
     3   1     0.43  -0.56   0.00    -0.58  -0.39   0.00    -0.56  -0.44   0.00

 -------------------
 - Thermochemistry -
 -------------------
 Temperature   298.150 Kelvin.  Pressure   1.00000 Atm.
 Atom     1 has atomic number  8 and mass  15.99491
 Atom     2 has atomic number  1 and mass   1.00783
 Atom     3 has atomic number  1 and mass   1.00783
 Molecular mass:    18.01056 amu.
 Principal axes and moments of inertia in atomic units:
                           1         2         3
     Eigenvalues --     2.29257   4.17415   6.46672
           X            1.00000   0.00058   0.00000
           Y           -0.00058   1.00000   0.00000
           Z            0.00000   0.00000   1.00000
 This molecule is an asymmetric top.
 Rotational symmetry number  1.
 Rotational temperatures (Kelvin)     37.78015    20.75007    13.39378
 Rotational constants (GHZ):         787.21148   432.36181   279.08137
 Zero-point vibrational energy      55556.2 (Joules/Mol)
                                   13.27826 (Kcal/Mol)
 Vibrational temperatures:   2465.14  5361.63  5536.98
          (Kelvin)
 
 Zero-point correction=                           0.021160 (Hartree/Particle)
 Thermal correction to Energy=                    0.023995
 Thermal correction to Enthalpy=                  0.024939
 Thermal correction to Gibbs Free Energy=         0.002838
 Sum of electronic and zero-point Energies=            -76.387794
 Sum of electronic and thermal Energies=               -76.384959
 Sum of electronic and thermal Enthalpies=             -76.384015
 Sum of electronic and thermal Free Energies=          -76.406116
 
                     E (Thermal)             CV                S
                      KCal/Mol        Cal/Mol-Kelvin    Cal/Mol-Kelvin
 Total                   15.057              5.997             46.515
 Electronic               0.000              0.000              0.000
 Translational            0.889              2.981             34.608
 Rotational               0.889              2.981             11.902
 Vibrational             13.280              0.035              0.005
                       Q            Log10(Q)             Ln(Q)
 Total Bot       0.494846D-01         -1.305530         -3.006093
 Total V=0       0.267603D+09          8.427492         19.405017
 Vib (Bot)       0.184965D-09         -9.732910        -22.410853
 Vib (V=0)       0.100026D+01          0.000111          0.000257
 Electronic      0.100000D+01          0.000000          0.000000
 Translational   0.300432D+07          6.477746         14.915562
 Rotational      0.890500D+02          1.949634          4.489198
 ***** Axes restored to original set *****
 -------------------------------------------------------------------
 Center     Atomic                   Forces (Hartrees/Bohr)
 Number     Number              X              Y              Z
 -------------------------------------------------------------------
      1        8           0.000198703   -0.000067266    0.000004022
      2        1          -0.000148176    0.000033529    0.000058094
      3        1          -0.000050528    0.000033737   -0.000062116
 -------------------------------------------------------------------
 Cartesian Forces:  Max     0.000198703 RMS     0.000093112
 FormGI is forming the generalized inverse of G from B-inverse, IUseBI=4.

 GradGradGradGradGradGradGradGradGradGradGradGradGradGradGradGradGradGrad
 Berny optimization.
 Internal  Forces:  Max     0.000161057 RMS     0.000107550
 Search for a local minimum.
 Step number   1 out of a maximum of    2
 All quantities printed in internal units (Hartrees-Bohrs-Radians)
 Second derivative matrix not updated -- analytic derivatives used.
 The second derivative matrix:
                          R1        R2        A1
           R1           0.51504
           R2          -0.00856   0.51594
           A1           0.03101   0.03099   0.17785
 ITU=  0
     Eigenvalues ---    0.17211   0.51266   0.52406
 Angle between quadratic step and forces=  24.19 degrees.
 Linear search not attempted -- first point.
 Iteration  1 RMS(Cart)=  0.00018456 RMS(Int)=  0.00000002
 Iteration  2 RMS(Cart)=  0.00000001 RMS(Int)=  0.00000000
 ClnCor:  largest displacement from symmetrization is 1.05D-15 for atom     3.
 Variable       Old X    -DE/DX   Delta X   Delta X   Delta X     New X
                                 (Linear)    (Quad)   (Total)
    R1        1.83097  -0.00016   0.00000  -0.00033  -0.00033   1.83064
    R2        1.83050   0.00008   0.00000   0.00014   0.00014   1.83064
    A1        1.80879   0.00004   0.00000   0.00027   0.00027   1.80906
         Item               Value     Threshold  Converged?
 Maximum Force            0.000161     0.000450     YES
 RMS     Force            0.000108     0.000300     YES
 Maximum Displacement     0.000214     0.001800     YES
 RMS     Displacement     0.000185     0.001200     YES
 Predicted change in Energy=-3.773151D-08
 Optimization completed.
    -- Stationary point found.
                           ----------------------------
                           !   Optimized Parameters   !
                           ! (Angstroms and Degrees)  !
 --------------------------                            --------------------------
 ! Name  Definition              Value          Derivative Info.                !
 --------------------------------------------------------------------------------
 ! R1    R(1,2)                  0.9689         -DE/DX =   -0.0002              !
 ! R2    R(1,3)                  0.9687         -DE/DX =    0.0001              !
 ! A1    A(2,1,3)              103.6361         -DE/DX =    0.0                 !
 --------------------------------------------------------------------------------
 GradGradGradGradGradGradGradGradGradGradGradGradGradGradGradGradGradGrad

 1\1\GINC-C-2-20\Freq\RB3LYP\6-31G(d)\H2O1\TY13946\06-Feb-2018\0\\#N Ge
 om=AllCheck Guess=TCheck SCRF=Check GenChk RB3LYP/6-31G(d) Freq\\Title
 \\0,1\O,0.1170909863,-2.2612813073,-1.2849683359\H,1.0285354429,-2.504
 651337,-1.5059199092\H,-0.2357964292,-1.9167873557,-2.1186917549\\Vers
 ion=AS64L-G09RevD.01\State=1-A'\HF=-76.4089539\RMSD=2.908e-10\RMSF=9.3
 11e-05\ZeroPoint=0.0211603\Thermal=0.0239948\Dipole=0.3844155,0.069647
 3,-0.7260453\DipoleDeriv=-0.4232537,-0.0866843,-0.0550198,-0.0866473,-
 0.6782288,-0.0788001,-0.0551559,-0.0787548,-0.3717912,0.1275613,0.0594
 598,0.0710967,0.0510472,0.3461665,0.003928,0.1019974,-0.0063624,0.2628
 412,0.2956924,0.0272245,-0.016077,0.0356001,0.3320623,0.0748721,-0.046
 8416,0.0851172,0.10895\Polar=6.5409258,-1.3607061,3.5285753,0.4588182,
 -0.9016216,5.580541\PG=CS [SG(H2O1)]\NImag=0\\0.54429556,-0.18959287,0
 .09984655,0.03074557,-0.13445188,0.45635941,-0.44275860,0.12742199,0.0
 7339945,0.46158964,0.11045058,-0.03554582,-0.00497832,-0.12953004,0.04
 012648,0.13573800,-0.02573789,-0.07161632,-0.08870587,0.01144504,0.066
 57351,-0.10153696,0.06217088,-0.10414502,-0.01883104,0.01907946,-0.047
 03213,0.12036800,0.07914229,-0.06430072,0.13943020,0.00210805,-0.00458
 066,0.01429285,-0.08125034,0.06888138,-0.16648358,0.16018977,-0.384743
 09,0.01530642,-0.00646672,0.00504281,0.15117716,-0.15372306,0.37970028
 \\-0.00019870,0.00006727,-0.00000402,0.00014818,-0.00003353,-0.0000580
 9,0.00005053,-0.00003374,0.00006212\\\@


 WHEN ALL ELSE FAILS, LOOK AT THE SCHRODINGER EQUATION.
     -- RUSSELL T. PACK, APRIL 1978
 Job cpu time:       0 days  0 hours  0 minutes  6.7 seconds.
 File lengths (MBytes):  RWF=      5 Int=      0 D2E=      0 Chk=      1 Scr=      1
 Normal termination of Gaussian 09 at Tue Feb  6 11:27:20 2018.
