 Entering Gaussian System, Link 0=g09
 Input=octane.gjf
 Output=octane.log
 Initial command:
 /share/apps/g09/l1.exe "/tmp/Gau-26739.inp" -scrdir="/tmp/"
 Entering Link 1 = /share/apps/g09/l1.exe PID=     26740.
  
 Copyright (c) 1988,1990,1992,1993,1995,1998,2003,2009,2013,
            Gaussian, Inc.  All Rights Reserved.
  
 This is part of the Gaussian(R) 09 program.  It is based on
 the Gaussian(R) 03 system (copyright 2003, Gaussian, Inc.),
 the Gaussian(R) 98 system (copyright 1998, Gaussian, Inc.),
 the Gaussian(R) 94 system (copyright 1995, Gaussian, Inc.),
 the Gaussian 92(TM) system (copyright 1992, Gaussian, Inc.),
 the Gaussian 90(TM) system (copyright 1990, Gaussian, Inc.),
 the Gaussian 88(TM) system (copyright 1988, Gaussian, Inc.),
 the Gaussian 86(TM) system (copyright 1986, Carnegie Mellon
 University), and the Gaussian 82(TM) system (copyright 1983,
 Carnegie Mellon University). Gaussian is a federally registered
 trademark of Gaussian, Inc.
  
 This software contains proprietary and confidential information,
 including trade secrets, belonging to Gaussian, Inc.
  
 This software is provided under written license and may be
 used, copied, transmitted, or stored only in accord with that
 written license.
  
 The following legend is applicable only to US Government
 contracts under FAR:
  
                    RESTRICTED RIGHTS LEGEND
  
 Use, reproduction and disclosure by the US Government is
 subject to restrictions as set forth in subparagraphs (a)
 and (c) of the Commercial Computer Software - Restricted
 Rights clause in FAR 52.227-19.
  
 Gaussian, Inc.
 340 Quinnipiac St., Bldg. 40, Wallingford CT 06492
  
  
 ---------------------------------------------------------------
 Warning -- This program may not be used in any manner that
 competes with the business of Gaussian, Inc. or will provide
 assistance to any competitor of Gaussian, Inc.  The licensee
 of this program is prohibited from giving any competitor of
 Gaussian, Inc. access to this program.  By using this program,
 the user acknowledges that Gaussian, Inc. is engaged in the
 business of creating and licensing software in the field of
 computational chemistry and represents and warrants to the
 licensee that it is not a competitor of Gaussian, Inc. and that
 it will not use this program in any manner prohibited above.
 ---------------------------------------------------------------
  

 Cite this work as:
 Gaussian 09, Revision D.01,
 M. J. Frisch, G. W. Trucks, H. B. Schlegel, G. E. Scuseria, 
 M. A. Robb, J. R. Cheeseman, G. Scalmani, V. Barone, B. Mennucci, 
 G. A. Petersson, H. Nakatsuji, M. Caricato, X. Li, H. P. Hratchian, 
 A. F. Izmaylov, J. Bloino, G. Zheng, J. L. Sonnenberg, M. Hada, 
 M. Ehara, K. Toyota, R. Fukuda, J. Hasegawa, M. Ishida, T. Nakajima, 
 Y. Honda, O. Kitao, H. Nakai, T. Vreven, J. A. Montgomery, Jr., 
 J. E. Peralta, F. Ogliaro, M. Bearpark, J. J. Heyd, E. Brothers, 
 K. N. Kudin, V. N. Staroverov, T. Keith, R. Kobayashi, J. Normand, 
 K. Raghavachari, A. Rendell, J. C. Burant, S. S. Iyengar, J. Tomasi, 
 M. Cossi, N. Rega, J. M. Millam, M. Klene, J. E. Knox, J. B. Cross, 
 V. Bakken, C. Adamo, J. Jaramillo, R. Gomperts, R. E. Stratmann, 
 O. Yazyev, A. J. Austin, R. Cammi, C. Pomelli, J. W. Ochterski, 
 R. L. Martin, K. Morokuma, V. G. Zakrzewski, G. A. Voth, 
 P. Salvador, J. J. Dannenberg, S. Dapprich, A. D. Daniels, 
 O. Farkas, J. B. Foresman, J. V. Ortiz, J. Cioslowski, 
 and D. J. Fox, Gaussian, Inc., Wallingford CT, 2013.
 
 ******************************************
 Gaussian 09:  AS64L-G09RevD.01 24-Apr-2013
                 6-Feb-2018 
 ******************************************
 -------------------------------------------------
 # opt freq b3lyp/6-31(d) Integral(Grid=UltraFine)
 -------------------------------------------------
 1/14=-1,18=20,19=15,26=4,38=1/1,3;
 2/9=110,12=2,17=6,18=5,40=1/2;
 3/5=1,6=6,7=1,11=2,16=1,25=1,30=1,71=1,74=-5,75=-5/1,2,3;
 4//1;
 5/5=2,38=5/2;
 6/7=2,8=2,9=2,10=2,28=1/1;
 7//1,2,3,16;
 1/14=-1,18=20,19=15,26=4/3(2);
 2/9=110/2;
 99//99;
 2/9=110/2;
 3/5=1,6=6,7=1,11=2,16=1,25=1,30=1,71=1,74=-5,75=-5/1,2,3;
 4/5=5,16=3,69=1/1;
 5/5=2,38=5/2;
 7//1,2,3,16;
 1/14=-1,18=20,19=15,26=4/3(-5);
 2/9=110/2;
 6/7=2,8=2,9=2,10=2,19=2,28=1/1;
 99/9=1/99;
 -----
 Title
 -----
 Symbolic Z-matrix:
 Charge =  0 Multiplicity = 1
 C                     4.14672  -2.07127   0.63276 
 C                     3.52255  -3.11253  -0.30396 
 C                     4.42847  -3.37939  -1.51189 
 H                     2.53624  -2.74109  -0.66016 
 H                     3.36689  -4.06196   0.25462 
 C                     3.80386  -4.42045  -2.44793 
 H                     5.41483  -3.75104  -1.15598 
 H                     4.58414  -2.43013  -2.07079 
 C                     4.7026   -4.68881  -3.65155 
 H                     2.8188   -4.05374  -2.81067 
 H                     3.6488   -5.37355  -1.89663 
 H                     4.8566   -3.75559  -4.2342 
 H                     4.22623  -5.44486  -4.31066 
 H                     5.68827  -5.07807  -3.31832 
 C                     3.2408   -1.8044    1.84069 
 H                     4.30239  -1.12184   0.07418 
 H                     5.13303  -2.44271   0.98896 
 C                     3.86541  -0.76333   2.77672 
 H                     3.08512  -2.75365   2.3996 
 H                     2.25445  -1.43274   1.48477 
 C                     2.96665  -0.49494   3.98032 
 H                     4.02049   0.18976   2.22541 
 H                     4.85046  -1.13005   3.13948 
 H                     1.981    -0.10568   3.64707 
 H                     3.44303   0.26111   4.63943 
 H                     2.81264  -1.42815   4.56299 
 

 GradGradGradGradGradGradGradGradGradGradGradGradGradGradGradGradGradGrad
 Berny optimization.
 Initialization pass.
                           ----------------------------
                           !    Initial Parameters    !
                           ! (Angstroms and Degrees)  !
 --------------------------                            --------------------------
 ! Name  Definition              Value          Derivative Info.                !
 --------------------------------------------------------------------------------
 ! R1    R(1,2)                  1.5334         estimate D2E/DX2                !
 ! R2    R(1,15)                 1.5333         estimate D2E/DX2                !
 ! R3    R(1,16)                 1.1125         estimate D2E/DX2                !
 ! R4    R(1,17)                 1.1125         estimate D2E/DX2                !
 ! R5    R(2,3)                  1.5333         estimate D2E/DX2                !
 ! R6    R(2,4)                  1.1125         estimate D2E/DX2                !
 ! R7    R(2,5)                  1.1125         estimate D2E/DX2                !
 ! R8    R(3,6)                  1.533          estimate D2E/DX2                !
 ! R9    R(3,7)                  1.1125         estimate D2E/DX2                !
 ! R10   R(3,8)                  1.1125         estimate D2E/DX2                !
 ! R11   R(6,9)                  1.5259         estimate D2E/DX2                !
 ! R12   R(6,10)                 1.1119         estimate D2E/DX2                !
 ! R13   R(6,11)                 1.1119         estimate D2E/DX2                !
 ! R14   R(9,12)                 1.1109         estimate D2E/DX2                !
 ! R15   R(9,13)                 1.1104         estimate D2E/DX2                !
 ! R16   R(9,14)                 1.1109         estimate D2E/DX2                !
 ! R17   R(15,18)                1.533          estimate D2E/DX2                !
 ! R18   R(15,19)                1.1125         estimate D2E/DX2                !
 ! R19   R(15,20)                1.1125         estimate D2E/DX2                !
 ! R20   R(18,21)                1.5259         estimate D2E/DX2                !
 ! R21   R(18,22)                1.1119         estimate D2E/DX2                !
 ! R22   R(18,23)                1.1119         estimate D2E/DX2                !
 ! R23   R(21,24)                1.1109         estimate D2E/DX2                !
 ! R24   R(21,25)                1.1104         estimate D2E/DX2                !
 ! R25   R(21,26)                1.1109         estimate D2E/DX2                !
 ! A1    A(2,1,15)             111.0354         estimate D2E/DX2                !
 ! A2    A(2,1,16)             109.2542         estimate D2E/DX2                !
 ! A3    A(2,1,17)             109.2537         estimate D2E/DX2                !
 ! A4    A(15,1,16)            109.2496         estimate D2E/DX2                !
 ! A5    A(15,1,17)            109.2498         estimate D2E/DX2                !
 ! A6    A(16,1,17)            108.7623         estimate D2E/DX2                !
 ! A7    A(1,2,3)              111.0351         estimate D2E/DX2                !
 ! A8    A(1,2,4)              109.2537         estimate D2E/DX2                !
 ! A9    A(1,2,5)              109.254          estimate D2E/DX2                !
 ! A10   A(3,2,4)              109.2497         estimate D2E/DX2                !
 ! A11   A(3,2,5)              109.2497         estimate D2E/DX2                !
 ! A12   A(4,2,5)              108.7628         estimate D2E/DX2                !
 ! A13   A(2,3,6)              111.0072         estimate D2E/DX2                !
 ! A14   A(2,3,7)              109.2654         estimate D2E/DX2                !
 ! A15   A(2,3,8)              109.2651         estimate D2E/DX2                !
 ! A16   A(6,3,7)              109.2514         estimate D2E/DX2                !
 ! A17   A(6,3,8)              109.2511         estimate D2E/DX2                !
 ! A18   A(7,3,8)              108.7656         estimate D2E/DX2                !
 ! A19   A(3,6,9)              111.1664         estimate D2E/DX2                !
 ! A20   A(3,6,10)             109.6442         estimate D2E/DX2                !
 ! A21   A(3,6,11)             109.6443         estimate D2E/DX2                !
 ! A22   A(9,6,10)             108.8115         estimate D2E/DX2                !
 ! A23   A(9,6,11)             108.8124         estimate D2E/DX2                !
 ! A24   A(10,6,11)            108.7169         estimate D2E/DX2                !
 ! A25   A(6,9,12)             110.3414         estimate D2E/DX2                !
 ! A26   A(6,9,13)             109.5892         estimate D2E/DX2                !
 ! A27   A(6,9,14)             110.3407         estimate D2E/DX2                !
 ! A28   A(12,9,13)            108.6708         estimate D2E/DX2                !
 ! A29   A(12,9,14)            109.1888         estimate D2E/DX2                !
 ! A30   A(13,9,14)            108.6701         estimate D2E/DX2                !
 ! A31   A(1,15,18)            111.0072         estimate D2E/DX2                !
 ! A32   A(1,15,19)            109.2656         estimate D2E/DX2                !
 ! A33   A(1,15,20)            109.2649         estimate D2E/DX2                !
 ! A34   A(18,15,19)           109.2511         estimate D2E/DX2                !
 ! A35   A(18,15,20)           109.2509         estimate D2E/DX2                !
 ! A36   A(19,15,20)           108.766          estimate D2E/DX2                !
 ! A37   A(15,18,21)           111.1661         estimate D2E/DX2                !
 ! A38   A(15,18,22)           109.6446         estimate D2E/DX2                !
 ! A39   A(15,18,23)           109.644          estimate D2E/DX2                !
 ! A40   A(21,18,22)           108.8123         estimate D2E/DX2                !
 ! A41   A(21,18,23)           108.8118         estimate D2E/DX2                !
 ! A42   A(22,18,23)           108.717          estimate D2E/DX2                !
 ! A43   A(18,21,24)           110.3408         estimate D2E/DX2                !
 ! A44   A(18,21,25)           109.5888         estimate D2E/DX2                !
 ! A45   A(18,21,26)           110.3413         estimate D2E/DX2                !
 ! A46   A(24,21,25)           108.6709         estimate D2E/DX2                !
 ! A47   A(24,21,26)           109.1894         estimate D2E/DX2                !
 ! A48   A(25,21,26)           108.67           estimate D2E/DX2                !
 ! D1    D(15,1,2,3)           179.9997         estimate D2E/DX2                !
 ! D2    D(15,1,2,4)            59.4372         estimate D2E/DX2                !
 ! D3    D(15,1,2,5)           -59.4377         estimate D2E/DX2                !
 ! D4    D(16,1,2,3)            59.4369         estimate D2E/DX2                !
 ! D5    D(16,1,2,4)           -61.1256         estimate D2E/DX2                !
 ! D6    D(16,1,2,5)           179.9995         estimate D2E/DX2                !
 ! D7    D(17,1,2,3)           -59.4375         estimate D2E/DX2                !
 ! D8    D(17,1,2,4)           180.0            estimate D2E/DX2                !
 ! D9    D(17,1,2,5)            61.1251         estimate D2E/DX2                !
 ! D10   D(2,1,15,18)         -179.9997         estimate D2E/DX2                !
 ! D11   D(2,1,15,19)           59.446          estimate D2E/DX2                !
 ! D12   D(2,1,15,20)          -59.4462         estimate D2E/DX2                !
 ! D13   D(16,1,15,18)         -59.4341         estimate D2E/DX2                !
 ! D14   D(16,1,15,19)        -179.9884         estimate D2E/DX2                !
 ! D15   D(16,1,15,20)          61.1194         estimate D2E/DX2                !
 ! D16   D(17,1,15,18)          59.4353         estimate D2E/DX2                !
 ! D17   D(17,1,15,19)         -61.119          estimate D2E/DX2                !
 ! D18   D(17,1,15,20)         179.9888         estimate D2E/DX2                !
 ! D19   D(1,2,3,6)           -179.9998         estimate D2E/DX2                !
 ! D20   D(1,2,3,7)             59.4457         estimate D2E/DX2                !
 ! D21   D(1,2,3,8)            -59.446          estimate D2E/DX2                !
 ! D22   D(4,2,3,6)            -59.435          estimate D2E/DX2                !
 ! D23   D(4,2,3,7)           -179.9894         estimate D2E/DX2                !
 ! D24   D(4,2,3,8)             61.1189         estimate D2E/DX2                !
 ! D25   D(5,2,3,6)             59.435          estimate D2E/DX2                !
 ! D26   D(5,2,3,7)            -61.1195         estimate D2E/DX2                !
 ! D27   D(5,2,3,8)            179.9888         estimate D2E/DX2                !
 ! D28   D(2,3,6,9)            179.9991         estimate D2E/DX2                !
 ! D29   D(2,3,6,10)            59.6435         estimate D2E/DX2                !
 ! D30   D(2,3,6,11)           -59.6442         estimate D2E/DX2                !
 ! D31   D(7,3,6,9)            -59.4381         estimate D2E/DX2                !
 ! D32   D(7,3,6,10)          -179.7937         estimate D2E/DX2                !
 ! D33   D(7,3,6,11)            60.9186         estimate D2E/DX2                !
 ! D34   D(8,3,6,9)             59.4369         estimate D2E/DX2                !
 ! D35   D(8,3,6,10)           -60.9187         estimate D2E/DX2                !
 ! D36   D(8,3,6,11)           179.7937         estimate D2E/DX2                !
 ! D37   D(3,6,9,12)           -60.3745         estimate D2E/DX2                !
 ! D38   D(3,6,9,13)           179.9999         estimate D2E/DX2                !
 ! D39   D(3,6,9,14)            60.3756         estimate D2E/DX2                !
 ! D40   D(10,6,9,12)           60.4722         estimate D2E/DX2                !
 ! D41   D(10,6,9,13)          -59.1535         estimate D2E/DX2                !
 ! D42   D(10,6,9,14)         -178.7778         estimate D2E/DX2                !
 ! D43   D(11,6,9,12)          178.7782         estimate D2E/DX2                !
 ! D44   D(11,6,9,13)           59.1526         estimate D2E/DX2                !
 ! D45   D(11,6,9,14)          -60.4718         estimate D2E/DX2                !
 ! D46   D(1,15,18,21)         179.9995         estimate D2E/DX2                !
 ! D47   D(1,15,18,22)          59.6429         estimate D2E/DX2                !
 ! D48   D(1,15,18,23)         -59.6449         estimate D2E/DX2                !
 ! D49   D(19,15,18,21)        -59.4376         estimate D2E/DX2                !
 ! D50   D(19,15,18,22)       -179.7942         estimate D2E/DX2                !
 ! D51   D(19,15,18,23)         60.918          estimate D2E/DX2                !
 ! D52   D(20,15,18,21)         59.4377         estimate D2E/DX2                !
 ! D53   D(20,15,18,22)        -60.9189         estimate D2E/DX2                !
 ! D54   D(20,15,18,23)        179.7933         estimate D2E/DX2                !
 ! D55   D(15,18,21,24)        -60.3755         estimate D2E/DX2                !
 ! D56   D(15,18,21,25)        179.9994         estimate D2E/DX2                !
 ! D57   D(15,18,21,26)         60.3751         estimate D2E/DX2                !
 ! D58   D(22,18,21,24)         60.4719         estimate D2E/DX2                !
 ! D59   D(22,18,21,25)        -59.1532         estimate D2E/DX2                !
 ! D60   D(22,18,21,26)       -178.7774         estimate D2E/DX2                !
 ! D61   D(23,18,21,24)        178.7781         estimate D2E/DX2                !
 ! D62   D(23,18,21,25)         59.1531         estimate D2E/DX2                !
 ! D63   D(23,18,21,26)        -60.4712         estimate D2E/DX2                !
 --------------------------------------------------------------------------------
 Trust Radius=3.00D-01 FncErr=1.00D-07 GrdErr=1.00D-06
 Number of steps in this run=    146 maximum allowed number of steps=    156.
 GradGradGradGradGradGradGradGradGradGradGradGradGradGradGradGradGradGrad

                          Input orientation:                          
 ---------------------------------------------------------------------
 Center     Atomic      Atomic             Coordinates (Angstroms)
 Number     Number       Type             X           Y           Z
 ---------------------------------------------------------------------
      1          6           0        4.146720   -2.071270    0.632760
      2          6           0        3.522550   -3.112530   -0.303960
      3          6           0        4.428470   -3.379390   -1.511890
      4          1           0        2.536240   -2.741090   -0.660160
      5          1           0        3.366890   -4.061960    0.254620
      6          6           0        3.803860   -4.420450   -2.447930
      7          1           0        5.414830   -3.751040   -1.155980
      8          1           0        4.584140   -2.430130   -2.070790
      9          6           0        4.702600   -4.688810   -3.651550
     10          1           0        2.818800   -4.053740   -2.810670
     11          1           0        3.648800   -5.373550   -1.896630
     12          1           0        4.856600   -3.755590   -4.234200
     13          1           0        4.226230   -5.444860   -4.310660
     14          1           0        5.688270   -5.078070   -3.318320
     15          6           0        3.240800   -1.804400    1.840690
     16          1           0        4.302390   -1.121840    0.074180
     17          1           0        5.133030   -2.442710    0.988960
     18          6           0        3.865410   -0.763330    2.776720
     19          1           0        3.085120   -2.753650    2.399600
     20          1           0        2.254450   -1.432740    1.484770
     21          6           0        2.966650   -0.494940    3.980320
     22          1           0        4.020490    0.189760    2.225410
     23          1           0        4.850460   -1.130050    3.139480
     24          1           0        1.981000   -0.105680    3.647070
     25          1           0        3.443030    0.261110    4.639430
     26          1           0        2.812640   -1.428150    4.562990
 ---------------------------------------------------------------------
                    Distance matrix (angstroms):
                    1          2          3          4          5
     1  C    0.000000
     2  C    1.533380   0.000000
     3  C    2.527862   1.533297   0.000000
     4  H    2.171163   1.112499   2.171038   0.000000
     5  H    2.171168   1.112501   2.171039   1.808729   0.000000
     6  C    3.889325   2.527132   1.533008   2.761020   2.761021
     7  H    2.762123   2.171257   1.112520   3.090650   2.506097
     8  H    2.762119   2.171251   1.112518   2.506086   3.090647
     9  C    5.051320   3.883753   2.523464   4.175541   4.175551
    10  H    4.189364   2.768526   2.175457   2.535268   3.113916
    11  H    4.189366   2.768528   2.175450   3.113919   2.535275
    12  H    5.198862   4.200000   2.781329   4.380302   4.739473
    13  H    5.985385   4.689198   3.484276   4.846915   4.846923
    14  H    5.198871   4.200007   2.781330   4.739471   4.380318
    15  C    1.533299   2.527867   3.889852   2.761891   2.761900
    16  H    1.112503   2.171172   2.761892   2.506095   3.090635
    17  H    1.112499   2.171163   2.761888   3.090622   2.506088
    18  C    2.527134   3.889329   5.054996   4.182149   4.182161
    19  H    2.171258   2.762133   4.182809   3.108626   2.528242
    20  H    2.171250   2.762124   4.182796   2.528223   3.108631
    21  C    3.883753   5.051322   6.373487   5.173442   5.173458
    22  H    2.768524   4.189365   5.183888   4.372573   4.731631
    23  H    2.768536   4.189374   5.183903   4.731631   4.372584
    24  H    4.199994   5.198862   6.581957   5.079952   5.392732
    25  H    4.689198   5.985388   7.215474   6.158013   6.158026
    26  H    4.200010   5.198876   6.581976   5.392727   5.079980
                    6          7          8          9         10
     6  C    0.000000
     7  H    2.170822   0.000000
     8  H    2.170817   1.808791   0.000000
     9  C    1.525927   2.759448   2.759433   0.000000
    10  H    1.111935   3.093380   2.509972   2.158494   0.000000
    11  H    1.111924   2.509973   3.093366   2.158497   1.807282
    12  H    2.177398   3.128431   2.551749   1.110899   2.503589
    13  H    2.167389   3.772771   3.772759   1.110390   2.483152
    14  H    2.177394   2.551763   3.128421   1.110905   3.088822
    15  C    5.054999   4.182803   4.182795   6.373490   5.183895
    16  H    4.182152   3.108619   2.528221   5.173442   4.372578
    17  H    4.182148   2.528222   3.108618   5.173448   4.731624
    18  C    6.377718   5.176219   5.176210   7.578452   6.568190
    19  H    5.176230   4.366290   4.726110   6.555723   5.376623
    20  H    5.176216   4.726106   4.366263   6.555701   5.063491
    21  C    7.578453   6.555711   6.555697   8.879612   7.668407
    22  H    6.568186   5.376606   5.063483   7.668401   6.694285
    23  H    6.568200   5.063505   5.376620   7.668424   6.933966
    24  H    7.686942   6.938957   6.698756   9.037812   7.615215
    25  H    8.501639   7.319298   7.319287   9.737996   8.632009
    26  H    7.686961   6.698793   6.938963   9.037838   7.827172
                   11         12         13         14         15
    11  H    0.000000
    12  H    3.088820   0.000000
    13  H    2.483154   1.804673   0.000000
    14  H    2.503587   1.810929   1.804670   0.000000
    15  C    5.183904   6.581963   7.215478   6.581976   0.000000
    16  H    4.731629   5.079953   6.158013   5.392724   2.171041
    17  H    4.372573   5.392724   6.158016   5.079968   2.171041
    18  C    6.568200   7.686942   8.501639   7.686957   1.533009
    19  H    5.063517   6.938972   7.319312   6.698800   1.112516
    20  H    5.376622   6.698764   7.319292   6.938964   1.112518
    21  C    7.668423   9.037814   9.737998   9.037834   2.523462
    22  H    6.933959   7.615210   8.632003   7.827162   2.175454
    23  H    6.694302   7.827174   8.632024   7.615246   2.175456
    24  H    7.827172   9.149062   9.842427   9.326584   2.781322
    25  H    8.632023   9.842427  10.643101   9.842445   3.484275
    26  H    7.615250   9.326591   9.842452   9.149110   2.781331
                   16         17         18         19         20
    16  H    0.000000
    17  H    1.808724   0.000000
    18  C    2.761015   2.761026   0.000000
    19  H    3.090652   2.506097   2.170817   0.000000
    20  H    2.506089   3.090646   2.170815   1.808792   0.000000
    21  C    4.175540   4.175553   1.525928   2.759435   2.759432
    22  H    2.535262   3.113913   1.111923   3.093367   2.509970
    23  H    3.113922   2.535283   1.111936   2.509965   3.093373
    24  H    4.380294   4.739467   2.177387   3.128419   2.551745
    25  H    4.846912   4.846924   2.167388   3.772760   3.772762
    26  H    4.739472   4.380323   2.177400   2.551755   3.128424
                   21         22         23         24         25
    21  C    0.000000
    22  H    2.158495   0.000000
    23  H    2.158499   1.807283   0.000000
    24  H    1.110894   2.503582   3.088816   0.000000
    25  H    1.110394   2.483152   2.483150   1.804673   0.000000
    26  H    1.110902   3.088821   2.503588   1.810928   1.804670
                   26
    26  H    0.000000
 Stoichiometry    C8H18
 Framework group  C1[X(C8H18)]
 Deg. of freedom    72
 Full point group                 C1      NOp   1
 Largest Abelian subgroup         C1      NOp   1
 Largest concise Abelian subgroup C1      NOp   1
                         Standard orientation:                         
 ---------------------------------------------------------------------
 Center     Atomic      Atomic             Coordinates (Angstroms)
 Number     Number       Type             X           Y           Z
 ---------------------------------------------------------------------
      1          6           0       -0.615445    0.457205    0.000012
      2          6           0        0.615448   -0.457212    0.000011
      3          6           0        1.910675    0.363389    0.000009
      4          1           0        0.591458   -1.104671   -0.904353
      5          1           0        0.591463   -1.104675    0.904376
      6          6           0        3.140824   -0.551406    0.000004
      7          1           0        1.935025    1.010830    0.904403
      8          1           0        1.935019    1.010822   -0.904389
      9          6           0        4.432089    0.261667   -0.000020
     10          1           0        3.124964   -1.199153   -0.903639
     11          1           0        3.124977   -1.199142    0.903642
     12          1           0        4.484495    0.903140   -0.905483
     13          1           0        5.304536   -0.425211   -0.000021
     14          1           0        4.484514    0.903144    0.905446
     15          6           0       -1.910678   -0.363391    0.000006
     16          1           0       -0.591459    1.104677   -0.904348
     17          1           0       -0.591455    1.104664    0.904376
     18          6           0       -3.140823    0.551409   -0.000001
     19          1           0       -1.935037   -1.010830    0.904397
     20          1           0       -1.935022   -1.010818   -0.904395
     21          6           0       -4.432088   -0.261665   -0.000018
     22          1           0       -3.124960    1.199159   -0.903628
     23          1           0       -3.124977    1.199140    0.903655
     24          1           0       -4.484494   -0.903122   -0.905485
     25          1           0       -5.304534    0.425222   -0.000013
     26          1           0       -4.484518   -0.903144    0.905443
 ---------------------------------------------------------------------
 Rotational constants (GHZ):     10.3556617      0.4995050      0.4886765
 Standard basis: 6-31G(d) (6D, 7F)
 There are   156 symmetry adapted cartesian basis functions of A   symmetry.
 There are   156 symmetry adapted basis functions of A   symmetry.
   156 basis functions,   296 primitive gaussians,   156 cartesian basis functions
    33 alpha electrons       33 beta electrons
       nuclear repulsion energy       374.9630816102 Hartrees.
 NAtoms=   26 NActive=   26 NUniq=   26 SFac= 1.00D+00 NAtFMM=   60 NAOKFM=F Big=F
 Integral buffers will be    131072 words long.
 Raffenetti 2 integral format.
 Two-electron integral symmetry is turned on.
 One-electron integrals computed using PRISM.
 NBasis=   156 RedAO= T EigKep=  2.64D-03  NBF=   156
 NBsUse=   156 1.00D-06 EigRej= -1.00D+00 NBFU=   156
 ExpMin= 1.61D-01 ExpMax= 3.05D+03 ExpMxC= 4.57D+02 IAcc=3 IRadAn=         5 AccDes= 0.00D+00
 Harris functional with IExCor=  402 and IRadAn=       5 diagonalized for initial guess.
 HarFok:  IExCor=  402 AccDes= 0.00D+00 IRadAn=         5 IDoV= 1 UseB2=F ITyADJ=14
 ICtDFT=  3500011 ScaDFX=  1.000000  1.000000  1.000000  1.000000
 FoFCou: FMM=F IPFlag=           0 FMFlag=      100000 FMFlg1=           0
         NFxFlg=           0 DoJE=T BraDBF=F KetDBF=T FulRan=T
         wScrn=  0.000000 ICntrl=     500 IOpCl=  0 I1Cent=   200000004 NGrid=           0
         NMat0=    1 NMatS0=      1 NMatT0=    0 NMatD0=    1 NMtDS0=    0 NMtDT0=    0
 Petite list used in FoFCou.
 Requested convergence on RMS density matrix=1.00D-08 within 128 cycles.
 Requested convergence on MAX density matrix=1.00D-06.
 Requested convergence on             energy=1.00D-06.
 No special actions if energy rises.
 Integral accuracy reduced to 1.0D-05 until final iterations.
 Initial convergence to 1.0D-05 achieved.  Increase integral accuracy.
 SCF Done:  E(RB3LYP) =  -315.707476140     A.U. after   11 cycles
            NFock= 11  Conv=0.88D-08     -V/T= 2.0111

 **********************************************************************

            Population analysis using the SCF density.

 **********************************************************************

 Orbital symmetries:
       Occupied  (A) (A) (A) (A) (A) (A) (A) (A) (A) (A) (A) (A)
                 (A) (A) (A) (A) (A) (A) (A) (A) (A) (A) (A) (A)
                 (A) (A) (A) (A) (A) (A) (A) (A) (A)
       Virtual   (A) (A) (A) (A) (A) (A) (A) (A) (A) (A) (A) (A)
                 (A) (A) (A) (A) (A) (A) (A) (A) (A) (A) (A) (A)
                 (A) (A) (A) (A) (A) (A) (A) (A) (A) (A) (A) (A)
                 (A) (A) (A) (A) (A) (A) (A) (A) (A) (A) (A) (A)
                 (A) (A) (A) (A) (A) (A) (A) (A) (A) (A) (A) (A)
                 (A) (A) (A) (A) (A) (A) (A) (A) (A) (A) (A) (A)
                 (A) (A) (A) (A) (A) (A) (A) (A) (A) (A) (A) (A)
                 (A) (A) (A) (A) (A) (A) (A) (A) (A) (A) (A) (A)
                 (A) (A) (A) (A) (A) (A) (A) (A) (A) (A) (A) (A)
                 (A) (A) (A) (A) (A) (A) (A) (A) (A) (A) (A) (A)
                 (A) (A) (A)
 The electronic state is 1-A.
 Alpha  occ. eigenvalues --  -10.17653 -10.17653 -10.17489 -10.17488 -10.17455
 Alpha  occ. eigenvalues --  -10.17435 -10.17217 -10.17217  -0.80489  -0.78103
 Alpha  occ. eigenvalues --   -0.74205  -0.69038  -0.63131  -0.57987  -0.56733
 Alpha  occ. eigenvalues --   -0.56141  -0.48133  -0.45962  -0.42925  -0.42671
 Alpha  occ. eigenvalues --   -0.41069  -0.40202  -0.38822  -0.37569  -0.35248
 Alpha  occ. eigenvalues --   -0.34371  -0.34131  -0.32886  -0.32518  -0.32097
 Alpha  occ. eigenvalues --   -0.32035  -0.31940  -0.28403
 Alpha virt. eigenvalues --    0.08620   0.09604   0.11038   0.11153   0.12245
 Alpha virt. eigenvalues --    0.13878   0.14426   0.14913   0.16825   0.17584
 Alpha virt. eigenvalues --    0.17937   0.19295   0.19462   0.19630   0.19780
 Alpha virt. eigenvalues --    0.20161   0.21142   0.21233   0.21928   0.23117
 Alpha virt. eigenvalues --    0.24871   0.25333   0.27779   0.31166   0.31465
 Alpha virt. eigenvalues --    0.48156   0.49611   0.51222   0.54469   0.56441
 Alpha virt. eigenvalues --    0.56564   0.57881   0.58965   0.59366   0.59978
 Alpha virt. eigenvalues --    0.62207   0.65924   0.67093   0.68787   0.69677
 Alpha virt. eigenvalues --    0.72204   0.75034   0.75193   0.77885   0.81546
 Alpha virt. eigenvalues --    0.81635   0.82047   0.83608   0.86119   0.86412
 Alpha virt. eigenvalues --    0.86461   0.89558   0.89610   0.90605   0.92655
 Alpha virt. eigenvalues --    0.92931   0.94015   0.94531   0.94643   0.95159
 Alpha virt. eigenvalues --    0.95517   0.96225   0.97530   0.97805   1.00278
 Alpha virt. eigenvalues --    1.04898   1.05915   1.25964   1.26781   1.36750
 Alpha virt. eigenvalues --    1.40342   1.42554   1.43107   1.46582   1.48968
 Alpha virt. eigenvalues --    1.51220   1.57310   1.65292   1.70780   1.71345
 Alpha virt. eigenvalues --    1.82437   1.83279   1.88866   1.89760   1.92116
 Alpha virt. eigenvalues --    1.93404   1.94828   1.96798   1.98511   1.99903
 Alpha virt. eigenvalues --    2.02088   2.02207   2.02963   2.05337   2.05416
 Alpha virt. eigenvalues --    2.11311   2.18922   2.19763   2.22635   2.26613
 Alpha virt. eigenvalues --    2.27894   2.28998   2.35114   2.36147   2.36794
 Alpha virt. eigenvalues --    2.42493   2.42572   2.49436   2.55606   2.56062
 Alpha virt. eigenvalues --    2.64210   2.64250   2.72585   2.83553   2.88621
 Alpha virt. eigenvalues --    4.11836   4.16437   4.23522   4.30822   4.36219
 Alpha virt. eigenvalues --    4.41437   4.49929   4.60153
          Condensed to atoms (all electrons):
               1          2          3          4          5          6
     1  C    5.001939   0.372290  -0.040967  -0.039347  -0.039346   0.003935
     2  C    0.372290   5.001937   0.374601   0.371841   0.371841  -0.040829
     3  C   -0.040967   0.374601   4.995691  -0.039327  -0.039327   0.381040
     4  H   -0.039347   0.371841  -0.039327   0.615627  -0.035892  -0.003835
     5  H   -0.039346   0.371841  -0.039327  -0.035892   0.615627  -0.003835
     6  C    0.003935  -0.040829   0.381040  -0.003835  -0.003835   4.970055
     7  H   -0.003730  -0.039186   0.371902   0.005630  -0.005010  -0.040371
     8  H   -0.003730  -0.039186   0.371903  -0.005010   0.005630  -0.040371
     9  C   -0.000152   0.004178  -0.047927   0.000049   0.000049   0.365980
    10  H    0.000052  -0.003851  -0.039465   0.005057  -0.000352   0.375902
    11  H    0.000052  -0.003851  -0.039465  -0.000352   0.005057   0.375903
    12  H    0.000001   0.000051  -0.005114   0.000005   0.000006  -0.035875
    13  H    0.000002  -0.000163   0.004655   0.000002   0.000002  -0.030213
    14  H    0.000001   0.000051  -0.005114   0.000006   0.000005  -0.035876
    15  C    0.374601  -0.040967   0.003933  -0.003779  -0.003779  -0.000137
    16  H    0.371841  -0.039347  -0.003779  -0.005002   0.005619   0.000042
    17  H    0.371840  -0.039347  -0.003779   0.005620  -0.005002   0.000042
    18  C   -0.040828   0.003935  -0.000137   0.000042   0.000042   0.000001
    19  H   -0.039186  -0.003730   0.000051  -0.000344   0.005034   0.000002
    20  H   -0.039187  -0.003730   0.000051   0.005034  -0.000344   0.000002
    21  C    0.004178  -0.000152   0.000001   0.000002   0.000002   0.000000
    22  H   -0.003851   0.000052   0.000002   0.000008   0.000003   0.000000
    23  H   -0.003851   0.000052   0.000002   0.000003   0.000008   0.000000
    24  H    0.000051   0.000001   0.000000  -0.000002   0.000001   0.000000
    25  H   -0.000163   0.000002   0.000000   0.000000   0.000000   0.000000
    26  H    0.000051   0.000001   0.000000   0.000001  -0.000002   0.000000
               7          8          9         10         11         12
     1  C   -0.003730  -0.003730  -0.000152   0.000052   0.000052   0.000001
     2  C   -0.039186  -0.039186   0.004178  -0.003851  -0.003851   0.000051
     3  C    0.371902   0.371903  -0.047927  -0.039465  -0.039465  -0.005114
     4  H    0.005630  -0.005010   0.000049   0.005057  -0.000352   0.000005
     5  H   -0.005010   0.005630   0.000049  -0.000352   0.005057   0.000006
     6  C   -0.040371  -0.040371   0.365980   0.375902   0.375903  -0.035875
     7  H    0.616176  -0.036110  -0.003221   0.005639  -0.005053  -0.000358
     8  H   -0.036110   0.616177  -0.003221  -0.005053   0.005640   0.005232
     9  C   -0.003221  -0.003221   5.077694  -0.040139  -0.040137   0.375741
    10  H    0.005639  -0.005053  -0.040139   0.612901  -0.035511  -0.004515
    11  H   -0.005053   0.005640  -0.040137  -0.035511   0.612895   0.005338
    12  H   -0.000358   0.005232   0.375741  -0.004515   0.005338   0.582335
    13  H   -0.000023  -0.000023   0.367596  -0.002880  -0.002880  -0.029744
    14  H    0.005232  -0.000358   0.375740   0.005338  -0.004515  -0.030448
    15  C    0.000051   0.000051   0.000001   0.000002   0.000002   0.000000
    16  H   -0.000344   0.005034   0.000002   0.000008   0.000003  -0.000002
    17  H    0.005034  -0.000344   0.000002   0.000003   0.000008   0.000001
    18  C    0.000002   0.000002   0.000000   0.000000   0.000000   0.000000
    19  H    0.000009   0.000003   0.000000   0.000001  -0.000003   0.000000
    20  H    0.000003   0.000009   0.000000  -0.000003   0.000001   0.000000
    21  C    0.000000   0.000000   0.000000   0.000000   0.000000   0.000000
    22  H    0.000001  -0.000003   0.000000   0.000000   0.000000   0.000000
    23  H   -0.000003   0.000001   0.000000   0.000000   0.000000   0.000000
    24  H    0.000000   0.000000   0.000000   0.000000   0.000000   0.000000
    25  H    0.000000   0.000000   0.000000   0.000000   0.000000   0.000000
    26  H    0.000000   0.000000   0.000000   0.000000   0.000000   0.000000
              13         14         15         16         17         18
     1  C    0.000002   0.000001   0.374601   0.371841   0.371840  -0.040828
     2  C   -0.000163   0.000051  -0.040967  -0.039347  -0.039347   0.003935
     3  C    0.004655  -0.005114   0.003933  -0.003779  -0.003779  -0.000137
     4  H    0.000002   0.000006  -0.003779  -0.005002   0.005620   0.000042
     5  H    0.000002   0.000005  -0.003779   0.005619  -0.005002   0.000042
     6  C   -0.030213  -0.035876  -0.000137   0.000042   0.000042   0.000001
     7  H   -0.000023   0.005232   0.000051  -0.000344   0.005034   0.000002
     8  H   -0.000023  -0.000358   0.000051   0.005034  -0.000344   0.000002
     9  C    0.367596   0.375740   0.000001   0.000002   0.000002   0.000000
    10  H   -0.002880   0.005338   0.000002   0.000008   0.000003   0.000000
    11  H   -0.002880  -0.004515   0.000002   0.000003   0.000008   0.000000
    12  H   -0.029744  -0.030448   0.000000  -0.000002   0.000001   0.000000
    13  H    0.587505  -0.029744   0.000000   0.000000   0.000000   0.000000
    14  H   -0.029744   0.582340   0.000000   0.000001  -0.000002   0.000000
    15  C    0.000000   0.000000   4.995691  -0.039327  -0.039327   0.381040
    16  H    0.000000   0.000001  -0.039327   0.615628  -0.035892  -0.003835
    17  H    0.000000  -0.000002  -0.039327  -0.035892   0.615628  -0.003835
    18  C    0.000000   0.000000   0.381040  -0.003835  -0.003835   4.970056
    19  H    0.000000   0.000000   0.371903   0.005630  -0.005010  -0.040371
    20  H    0.000000   0.000000   0.371903  -0.005010   0.005630  -0.040372
    21  C    0.000000   0.000000  -0.047928   0.000049   0.000049   0.365980
    22  H    0.000000   0.000000  -0.039465   0.005057  -0.000352   0.375903
    23  H    0.000000   0.000000  -0.039465  -0.000352   0.005057   0.375902
    24  H    0.000000   0.000000  -0.005114   0.000005   0.000006  -0.035876
    25  H    0.000000   0.000000   0.004655   0.000002   0.000002  -0.030213
    26  H    0.000000   0.000000  -0.005114   0.000006   0.000005  -0.035875
              19         20         21         22         23         24
     1  C   -0.039186  -0.039187   0.004178  -0.003851  -0.003851   0.000051
     2  C   -0.003730  -0.003730  -0.000152   0.000052   0.000052   0.000001
     3  C    0.000051   0.000051   0.000001   0.000002   0.000002   0.000000
     4  H   -0.000344   0.005034   0.000002   0.000008   0.000003  -0.000002
     5  H    0.005034  -0.000344   0.000002   0.000003   0.000008   0.000001
     6  C    0.000002   0.000002   0.000000   0.000000   0.000000   0.000000
     7  H    0.000009   0.000003   0.000000   0.000001  -0.000003   0.000000
     8  H    0.000003   0.000009   0.000000  -0.000003   0.000001   0.000000
     9  C    0.000000   0.000000   0.000000   0.000000   0.000000   0.000000
    10  H    0.000001  -0.000003   0.000000   0.000000   0.000000   0.000000
    11  H   -0.000003   0.000001   0.000000   0.000000   0.000000   0.000000
    12  H    0.000000   0.000000   0.000000   0.000000   0.000000   0.000000
    13  H    0.000000   0.000000   0.000000   0.000000   0.000000   0.000000
    14  H    0.000000   0.000000   0.000000   0.000000   0.000000   0.000000
    15  C    0.371903   0.371903  -0.047928  -0.039465  -0.039465  -0.005114
    16  H    0.005630  -0.005010   0.000049   0.005057  -0.000352   0.000005
    17  H   -0.005010   0.005630   0.000049  -0.000352   0.005057   0.000006
    18  C   -0.040371  -0.040372   0.365980   0.375903   0.375902  -0.035876
    19  H    0.616174  -0.036110  -0.003221   0.005640  -0.005053  -0.000358
    20  H   -0.036110   0.616177  -0.003221  -0.005053   0.005640   0.005232
    21  C   -0.003221  -0.003221   5.077694  -0.040138  -0.040138   0.375741
    22  H    0.005640  -0.005053  -0.040138   0.612895  -0.035511  -0.004514
    23  H   -0.005053   0.005640  -0.040138  -0.035511   0.612901   0.005338
    24  H   -0.000358   0.005232   0.375741  -0.004514   0.005338   0.582334
    25  H   -0.000023  -0.000023   0.367596  -0.002880  -0.002880  -0.029743
    26  H    0.005232  -0.000358   0.375741   0.005338  -0.004515  -0.030448
              25         26
     1  C   -0.000163   0.000051
     2  C    0.000002   0.000001
     3  C    0.000000   0.000000
     4  H    0.000000   0.000001
     5  H    0.000000  -0.000002
     6  C    0.000000   0.000000
     7  H    0.000000   0.000000
     8  H    0.000000   0.000000
     9  C    0.000000   0.000000
    10  H    0.000000   0.000000
    11  H    0.000000   0.000000
    12  H    0.000000   0.000000
    13  H    0.000000   0.000000
    14  H    0.000000   0.000000
    15  C    0.004655  -0.005114
    16  H    0.000002   0.000006
    17  H    0.000002   0.000005
    18  C   -0.030213  -0.035875
    19  H   -0.000023   0.005232
    20  H   -0.000023  -0.000358
    21  C    0.367596   0.375741
    22  H   -0.002880   0.005338
    23  H   -0.002880  -0.004515
    24  H   -0.029743  -0.030448
    25  H    0.587508  -0.029744
    26  H   -0.029744   0.582336
 Mulliken charges:
               1
     1  C   -0.246492
     2  C   -0.246491
     3  C   -0.239431
     4  H    0.123965
     5  H    0.123964
     6  C   -0.241563
     7  H    0.123729
     8  H    0.123729
     9  C   -0.432234
    10  H    0.126866
    11  H    0.126869
    12  H    0.137347
    13  H    0.135907
    14  H    0.137345
    15  C   -0.239431
    16  H    0.123963
    17  H    0.123964
    18  C   -0.241564
    19  H    0.123730
    20  H    0.123729
    21  C   -0.432234
    22  H    0.126869
    23  H    0.126865
    24  H    0.137348
    25  H    0.135905
    26  H    0.137346
 Sum of Mulliken charges =   0.00000
 Mulliken charges with hydrogens summed into heavy atoms:
               1
     1  C    0.001435
     2  C    0.001437
     3  C    0.008027
     6  C    0.012172
     9  C   -0.021635
    15  C    0.008028
    18  C    0.012171
    21  C   -0.021635
 Electronic spatial extent (au):  <R**2>=           2390.1778
 Charge=              0.0000 electrons
 Dipole moment (field-independent basis, Debye):
    X=              0.0000    Y=              0.0000    Z=              0.0000  Tot=              0.0000
 Quadrupole moment (field-independent basis, Debye-Ang):
   XX=            -57.6797   YY=            -55.6290   ZZ=            -53.4202
   XY=             -0.6707   XZ=              0.0000   YZ=             -0.0001
 Traceless Quadrupole moment (field-independent basis, Debye-Ang):
   XX=             -2.1034   YY=             -0.0527   ZZ=              2.1561
   XY=             -0.6707   XZ=              0.0000   YZ=             -0.0001
 Octapole moment (field-independent basis, Debye-Ang**2):
  XXX=              0.0003  YYY=              0.0000  ZZZ=              0.0000  XYY=              0.0000
  XXY=             -0.0001  XXZ=              0.0002  XZZ=             -0.0001  YZZ=              0.0000
  YYZ=              0.0000  XYZ=              0.0000
 Hexadecapole moment (field-independent basis, Debye-Ang**3):
 XXXX=          -3143.2745 YYYY=           -194.2750 ZZZZ=           -114.2977 XXXY=            -35.3346
 XXXZ=             -0.0007 YYYX=             -1.1429 YYYZ=             -0.0002 ZZZX=              0.0002
 ZZZY=             -0.0001 XXYY=           -539.0483 XXZZ=           -515.9714 YYZZ=            -46.5999
 XXYZ=             -0.0007 YYXZ=              0.0001 ZZXY=              2.5196
 N-N= 3.749630816102D+02 E-N=-1.478303141711D+03  KE= 3.122431309534D+02
 Calling FoFJK, ICntrl=      2127 FMM=F ISym2X=0 I1Cent= 0 IOpClX= 0 NMat=1 NMatS=1 NMatT=0.
 ***** Axes restored to original set *****
 -------------------------------------------------------------------
 Center     Atomic                   Forces (Hartrees/Bohr)
 Number     Number              X              Y              Z
 -------------------------------------------------------------------
      1        6          -0.006850831   -0.003488762    0.001182966
      2        6           0.006851906    0.003489576   -0.001181985
      3        6          -0.007146026   -0.003955971    0.000776854
      4        1           0.006018724   -0.005485376    0.004110259
      5        1          -0.002108387    0.007440122   -0.004840489
      6        6           0.002506041   -0.000192537   -0.002566084
      7        1          -0.005920001    0.005339401   -0.004239580
      8        1           0.002128728   -0.007457071    0.004622966
      9        6          -0.000285564   -0.005461562   -0.007616387
     10        1           0.005645790   -0.004800036    0.005494798
     11        1          -0.002508165    0.008159776   -0.003482391
     12        1           0.000945351   -0.009006804    0.003288904
     13        1           0.007330741    0.006121137    0.002180523
     14        1          -0.007025023    0.003665205   -0.005487431
     15        6           0.007147451    0.003958504   -0.000778944
     16        1           0.002107427   -0.007440795    0.004840675
     17        1          -0.006018825    0.005484871   -0.004109952
     18        6          -0.002505990    0.000190814    0.002566895
     19        1          -0.002128689    0.007456064   -0.004622963
     20        1           0.005918113   -0.005339843    0.004239538
     21        6           0.000294912    0.005458457    0.007621453
     22        1           0.002508040   -0.008159691    0.003481931
     23        1          -0.005646150    0.004800730   -0.005494718
     24        1           0.007019160   -0.003662637    0.005486258
     25        1          -0.007332846   -0.006121621   -0.002182335
     26        1          -0.000945885    0.009008047   -0.003290762
 -------------------------------------------------------------------
 Cartesian Forces:  Max     0.009008047 RMS     0.005088832

 GradGradGradGradGradGradGradGradGradGradGradGradGradGradGradGradGradGrad
 Berny optimization.
 FormGI is forming the generalized inverse of G from B-inverse, IUseBI=4.
 GSVD:  received Info=                   1 from GESDD.
 Internal  Forces:  Max     0.009774805 RMS     0.004290025
 Search for a local minimum.
 Step number   1 out of a maximum of  146
 All quantities printed in internal units (Hartrees-Bohrs-Radians)
 Mixed Optimization -- RFO/linear search
 Second derivative matrix not updated -- first step.
 ITU=  0
     Eigenvalues ---    0.00324   0.00325   0.00325   0.00329   0.00329
     Eigenvalues ---    0.00423   0.00423   0.03733   0.03733   0.03738
     Eigenvalues ---    0.03738   0.03759   0.03759   0.04903   0.04903
     Eigenvalues ---    0.04905   0.04905   0.04931   0.04931   0.05672
     Eigenvalues ---    0.05672   0.05782   0.05782   0.07971   0.07971
     Eigenvalues ---    0.07974   0.07974   0.08026   0.08026   0.11935
     Eigenvalues ---    0.11935   0.11938   0.11938   0.11968   0.11968
     Eigenvalues ---    0.16000   0.16000   0.16000   0.16000   0.16000
     Eigenvalues ---    0.16000   0.21957   0.21957   0.21958   0.21958
     Eigenvalues ---    0.21959   0.21959   0.29113   0.29121   0.29121
     Eigenvalues ---    0.29147   0.29147   0.29803   0.29803   0.32335
     Eigenvalues ---    0.32335   0.32335   0.32335   0.32336   0.32337
     Eigenvalues ---    0.32337   0.32337   0.32396   0.32396   0.32397
     Eigenvalues ---    0.32397   0.32504   0.32505   0.32505   0.32506
     Eigenvalues ---    0.32558   0.32559
 RFO step:  Lambda=-1.14717059D-02 EMin= 3.24390965D-03
 Linear search not attempted -- first point.
 Iteration  1 RMS(Cart)=  0.05975772 RMS(Int)=  0.00035634
 Iteration  2 RMS(Cart)=  0.00078632 RMS(Int)=  0.00021236
 Iteration  3 RMS(Cart)=  0.00000008 RMS(Int)=  0.00021236
 Variable       Old X    -DE/DX   Delta X   Delta X   Delta X     New X
                                 (Linear)    (Quad)   (Total)
    R1        2.89767   0.00430   0.00000   0.01421   0.01421   2.91188
    R2        2.89752   0.00430   0.00000   0.01420   0.01420   2.91171
    R3        2.10233  -0.00849   0.00000  -0.02534  -0.02534   2.07698
    R4        2.10232  -0.00848   0.00000  -0.02534  -0.02534   2.07698
    R5        2.89751   0.00430   0.00000   0.01420   0.01420   2.91171
    R6        2.10232  -0.00848   0.00000  -0.02534  -0.02534   2.07698
    R7        2.10232  -0.00848   0.00000  -0.02534  -0.02534   2.07698
    R8        2.89697   0.00334   0.00000   0.01101   0.01101   2.90798
    R9        2.10236  -0.00839   0.00000  -0.02505  -0.02505   2.07730
   R10        2.10235  -0.00839   0.00000  -0.02505  -0.02505   2.07730
   R11        2.88358   0.00741   0.00000   0.02395   0.02395   2.90754
   R12        2.10125  -0.00838   0.00000  -0.02497  -0.02497   2.07628
   R13        2.10123  -0.00837   0.00000  -0.02495  -0.02495   2.07628
   R14        2.09929  -0.00916   0.00000  -0.02722  -0.02722   2.07207
   R15        2.09833  -0.00861   0.00000  -0.02554  -0.02554   2.07280
   R16        2.09931  -0.00916   0.00000  -0.02723  -0.02723   2.07208
   R17        2.89697   0.00334   0.00000   0.01101   0.01101   2.90798
   R18        2.10235  -0.00839   0.00000  -0.02505  -0.02505   2.07730
   R19        2.10235  -0.00839   0.00000  -0.02505  -0.02505   2.07730
   R20        2.88359   0.00741   0.00000   0.02395   0.02395   2.90754
   R21        2.10123  -0.00837   0.00000  -0.02495  -0.02495   2.07628
   R22        2.10125  -0.00838   0.00000  -0.02498  -0.02498   2.07628
   R23        2.09928  -0.00916   0.00000  -0.02721  -0.02721   2.07207
   R24        2.09834  -0.00861   0.00000  -0.02554  -0.02554   2.07280
   R25        2.09930  -0.00916   0.00000  -0.02723  -0.02723   2.07207
    A1        1.93793   0.00969   0.00000   0.05191   0.05152   1.98945
    A2        1.90685  -0.00236   0.00000  -0.00466  -0.00499   1.90185
    A3        1.90684  -0.00236   0.00000  -0.00465  -0.00498   1.90185
    A4        1.90677  -0.00239   0.00000  -0.00494  -0.00528   1.90149
    A5        1.90677  -0.00239   0.00000  -0.00494  -0.00528   1.90149
    A6        1.89826  -0.00036   0.00000  -0.03446  -0.03465   1.86361
    A7        1.93793   0.00970   0.00000   0.05192   0.05152   1.98945
    A8        1.90684  -0.00236   0.00000  -0.00465  -0.00498   1.90185
    A9        1.90684  -0.00236   0.00000  -0.00466  -0.00499   1.90185
   A10        1.90677  -0.00239   0.00000  -0.00494  -0.00528   1.90149
   A11        1.90677  -0.00239   0.00000  -0.00494  -0.00528   1.90149
   A12        1.89827  -0.00036   0.00000  -0.03447  -0.03465   1.86362
   A13        1.93744   0.00977   0.00000   0.05226   0.05187   1.98931
   A14        1.90704  -0.00230   0.00000  -0.00379  -0.00408   1.90296
   A15        1.90704  -0.00230   0.00000  -0.00378  -0.00408   1.90296
   A16        1.90680  -0.00251   0.00000  -0.00604  -0.00641   1.90039
   A17        1.90679  -0.00251   0.00000  -0.00603  -0.00641   1.90039
   A18        1.89832  -0.00034   0.00000  -0.03436  -0.03455   1.86377
   A19        1.94022   0.00752   0.00000   0.04214   0.04182   1.98204
   A20        1.91365  -0.00255   0.00000  -0.01195  -0.01254   1.90111
   A21        1.91365  -0.00255   0.00000  -0.01195  -0.01254   1.90111
   A22        1.89912  -0.00088   0.00000   0.00759   0.00759   1.90671
   A23        1.89913  -0.00088   0.00000   0.00758   0.00758   1.90671
   A24        1.89747  -0.00079   0.00000  -0.03482  -0.03508   1.86238
   A25        1.92582   0.00242   0.00000   0.01252   0.01233   1.93815
   A26        1.91269   0.00594   0.00000   0.03785   0.03747   1.95016
   A27        1.92581   0.00243   0.00000   0.01253   0.01234   1.93815
   A28        1.89666  -0.00380   0.00000  -0.01902  -0.01938   1.87728
   A29        1.90570  -0.00341   0.00000  -0.02603  -0.02601   1.87970
   A30        1.89665  -0.00380   0.00000  -0.01901  -0.01938   1.87727
   A31        1.93744   0.00977   0.00000   0.05226   0.05187   1.98931
   A32        1.90704  -0.00230   0.00000  -0.00379  -0.00409   1.90296
   A33        1.90703  -0.00230   0.00000  -0.00378  -0.00408   1.90296
   A34        1.90679  -0.00251   0.00000  -0.00603  -0.00641   1.90039
   A35        1.90679  -0.00251   0.00000  -0.00603  -0.00640   1.90038
   A36        1.89832  -0.00034   0.00000  -0.03436  -0.03455   1.86377
   A37        1.94021   0.00752   0.00000   0.04215   0.04182   1.98204
   A38        1.91366  -0.00255   0.00000  -0.01196  -0.01254   1.90111
   A39        1.91365  -0.00255   0.00000  -0.01195  -0.01254   1.90111
   A40        1.89913  -0.00088   0.00000   0.00758   0.00758   1.90671
   A41        1.89912  -0.00088   0.00000   0.00759   0.00758   1.90671
   A42        1.89747  -0.00079   0.00000  -0.03482  -0.03508   1.86239
   A43        1.92581   0.00243   0.00000   0.01253   0.01234   1.93815
   A44        1.91268   0.00594   0.00000   0.03786   0.03747   1.95016
   A45        1.92582   0.00242   0.00000   0.01252   0.01233   1.93815
   A46        1.89667  -0.00380   0.00000  -0.01902  -0.01939   1.87728
   A47        1.90571  -0.00341   0.00000  -0.02604  -0.02601   1.87970
   A48        1.89665  -0.00380   0.00000  -0.01901  -0.01938   1.87727
    D1        3.14159   0.00000   0.00000   0.00000   0.00000   3.14159
    D2        1.03738  -0.00162   0.00000  -0.02366  -0.02369   1.01369
    D3       -1.03738   0.00162   0.00000   0.02366   0.02369  -1.01370
    D4        1.03737  -0.00162   0.00000  -0.02366  -0.02368   1.01369
    D5       -1.06684  -0.00323   0.00000  -0.04732  -0.04737  -1.11421
    D6        3.14158   0.00000   0.00000   0.00000   0.00000   3.14159
    D7       -1.03738   0.00162   0.00000   0.02366   0.02369  -1.01369
    D8        3.14159   0.00000   0.00000   0.00000   0.00000   3.14159
    D9        1.06683   0.00323   0.00000   0.04732   0.04737   1.11421
   D10       -3.14159   0.00000   0.00000   0.00000   0.00000  -3.14159
   D11        1.03753  -0.00157   0.00000  -0.02309  -0.02313   1.01440
   D12       -1.03753   0.00157   0.00000   0.02309   0.02314  -1.01439
   D13       -1.03732   0.00163   0.00000   0.02382   0.02384  -1.01348
   D14       -3.14139   0.00007   0.00000   0.00073   0.00071  -3.14068
   D15        1.06673   0.00320   0.00000   0.04691   0.04698   1.11371
   D16        1.03734  -0.00163   0.00000  -0.02383  -0.02385   1.01349
   D17       -1.06673  -0.00320   0.00000  -0.04691  -0.04698  -1.11371
   D18        3.14140  -0.00007   0.00000  -0.00073  -0.00071   3.14069
   D19       -3.14159   0.00000   0.00000  -0.00001  -0.00001   3.14159
   D20        1.03752  -0.00157   0.00000  -0.02309  -0.02313   1.01439
   D21       -1.03753   0.00157   0.00000   0.02309   0.02313  -1.01440
   D22       -1.03734   0.00163   0.00000   0.02382   0.02384  -1.01349
   D23       -3.14141   0.00007   0.00000   0.00074   0.00072  -3.14069
   D24        1.06673   0.00320   0.00000   0.04692   0.04698   1.11371
   D25        1.03734  -0.00163   0.00000  -0.02383  -0.02385   1.01349
   D26       -1.06674  -0.00320   0.00000  -0.04691  -0.04698  -1.11371
   D27        3.14140  -0.00007   0.00000  -0.00074  -0.00071   3.14069
   D28        3.14158   0.00000   0.00000   0.00001   0.00001   3.14159
   D29        1.04098  -0.00204   0.00000  -0.02860  -0.02843   1.01255
   D30       -1.04099   0.00204   0.00000   0.02861   0.02843  -1.01255
   D31       -1.03739   0.00169   0.00000   0.02441   0.02441  -1.01298
   D32       -3.13799  -0.00035   0.00000  -0.00420  -0.00403   3.14117
   D33        1.06323   0.00373   0.00000   0.05301   0.05284   1.11607
   D34        1.03737  -0.00169   0.00000  -0.02440  -0.02440   1.01297
   D35       -1.06323  -0.00373   0.00000  -0.05301  -0.05284  -1.11607
   D36        3.13799   0.00035   0.00000   0.00419   0.00402  -3.14117
   D37       -1.05373   0.00055   0.00000   0.00810   0.00820  -1.04553
   D38        3.14159   0.00000   0.00000   0.00000   0.00000  -3.14159
   D39        1.05375  -0.00055   0.00000  -0.00811  -0.00821   1.04554
   D40        1.05544   0.00153   0.00000   0.02468   0.02496   1.08040
   D41       -1.03242   0.00098   0.00000   0.01658   0.01676  -1.01566
   D42       -3.12026   0.00042   0.00000   0.00847   0.00855  -3.11172
   D43        3.12027  -0.00042   0.00000  -0.00847  -0.00855   3.11172
   D44        1.03241  -0.00098   0.00000  -0.01657  -0.01675   1.01566
   D45       -1.05543  -0.00153   0.00000  -0.02468  -0.02496  -1.08039
   D46        3.14158   0.00000   0.00000   0.00000   0.00000   3.14159
   D47        1.04097  -0.00204   0.00000  -0.02860  -0.02842   1.01254
   D48       -1.04100   0.00204   0.00000   0.02861   0.02844  -1.01256
   D49       -1.03738   0.00169   0.00000   0.02440   0.02440  -1.01298
   D50       -3.13800  -0.00035   0.00000  -0.00419  -0.00402   3.14116
   D51        1.06322   0.00373   0.00000   0.05301   0.05284   1.11606
   D52        1.03738  -0.00169   0.00000  -0.02441  -0.02441   1.01297
   D53       -1.06323  -0.00373   0.00000  -0.05301  -0.05284  -1.11607
   D54        3.13799   0.00035   0.00000   0.00420   0.00403  -3.14117
   D55       -1.05375   0.00055   0.00000   0.00811   0.00821  -1.04554
   D56        3.14158   0.00000   0.00000   0.00001   0.00001   3.14159
   D57        1.05375  -0.00055   0.00000  -0.00810  -0.00821   1.04554
   D58        1.05543   0.00153   0.00000   0.02468   0.02496   1.08039
   D59       -1.03242   0.00098   0.00000   0.01658   0.01675  -1.01566
   D60       -3.12025   0.00042   0.00000   0.00847   0.00854  -3.11171
   D61        3.12027  -0.00042   0.00000  -0.00847  -0.00855   3.11172
   D62        1.03242  -0.00098   0.00000  -0.01658  -0.01675   1.01566
   D63       -1.05542  -0.00153   0.00000  -0.02469  -0.02497  -1.08039
         Item               Value     Threshold  Converged?
 Maximum Force            0.009775     0.000450     NO 
 RMS     Force            0.004290     0.000300     NO 
 Maximum Displacement     0.198769     0.001800     NO 
 RMS     Displacement     0.059087     0.001200     NO 
 Predicted change in Energy=-6.228418D-03
 GradGradGradGradGradGradGradGradGradGradGradGradGradGradGradGradGradGrad

                          Input orientation:                          
 ---------------------------------------------------------------------
 Center     Atomic      Atomic             Coordinates (Angstroms)
 Number     Number       Type             X           Y           Z
 ---------------------------------------------------------------------
      1          6           0        4.132959   -2.070313    0.646631
      2          6           0        3.536311   -3.113475   -0.317835
      3          6           0        4.419225   -3.408564   -1.545634
      4          1           0        2.553448   -2.761397   -0.661382
      5          1           0        3.363778   -4.049953    0.231022
      6          6           0        3.823202   -4.450352   -2.508677
      7          1           0        5.402410   -3.761728   -1.203584
      8          1           0        4.591905   -2.472902   -2.096176
      9          6           0        4.712414   -4.737669   -3.730989
     10          1           0        2.840226   -4.098228   -2.850658
     11          1           0        3.649918   -5.385756   -1.958972
     12          1           0        4.879558   -3.827432   -4.319063
     13          1           0        4.259834   -5.483075   -4.396332
     14          1           0        5.692783   -5.120581   -3.423488
     15          6           0        3.250044   -1.775218    1.874427
     16          1           0        4.305498   -1.133836    0.097775
     17          1           0        5.115822   -2.422392    0.990179
     18          6           0        3.846068   -0.733428    2.837468
     19          1           0        3.077358   -2.710877    2.424971
     20          1           0        2.266861   -1.422051    1.532371
     21          6           0        2.956845   -0.446093    4.059768
     22          1           0        4.019367    0.201969    2.287757
     23          1           0        4.829037   -1.085560    3.179462
     24          1           0        1.976483   -0.063176    3.752254
     25          1           0        3.409428    0.299311    4.725112
     26          1           0        2.789691   -1.356323    4.647851
 ---------------------------------------------------------------------
                    Distance matrix (angstroms):
                    1          2          3          4          5
     1  C    0.000000
     2  C    1.540899   0.000000
     3  C    2.584355   1.540813   0.000000
     4  H    2.164105   1.099092   2.163758   0.000000
     5  H    2.164104   1.099092   2.163759   1.764481   0.000000
     6  C    3.964404   2.582505   1.538836   2.806660   2.806659
     7  H    2.809926   2.164973   1.099262   3.067773   2.509420
     8  H    2.809928   2.164973   1.099262   2.509416   3.067773
     9  C    5.158886   3.958641   2.574540   4.241376   4.241379
    10  H    4.244364   2.805256   2.161472   2.581140   3.126209
    11  H    4.244367   2.805262   2.161474   3.126219   2.581146
    12  H    5.320056   4.280639   2.842405   4.463838   4.801081
    13  H    6.090526   4.772067   3.529232   4.926371   4.926373
    14  H    5.320061   4.280645   2.842409   4.801083   4.463849
    15  C    1.540813   2.584355   3.966311   2.808580   2.808582
    16  H    1.099092   2.164105   2.808579   2.508974   3.067300
    17  H    1.099092   2.164105   2.808582   3.067301   2.508970
    18  C    2.582506   3.964405   5.166860   4.245642   4.245645
    19  H    2.164973   2.809931   4.248892   3.130912   2.586228
    20  H    2.164972   2.809925   4.248884   2.586220   3.130912
    21  C    3.958642   5.158887   6.506560   5.273767   5.273775
    22  H    2.805257   4.244364   5.281167   4.430336   4.768522
    23  H    2.805263   4.244369   5.281177   4.768524   4.430340
    24  H    4.280641   5.320058   6.725045   5.205139   5.497096
    25  H    4.772067   6.090527   7.354610   6.254195   6.254201
    26  H    4.280644   5.320062   6.725052   5.497090   5.205151
                    6          7          8          9         10
     6  C    0.000000
     7  H    2.161336   0.000000
     8  H    2.161336   1.764854   0.000000
     9  C    1.538602   2.795770   2.795765   0.000000
    10  H    1.098720   3.064453   2.505855   2.165400   0.000000
    11  H    1.098718   2.505855   3.064454   2.165400   1.763075
    12  H    2.186645   3.159731   2.618917   1.096494   2.527532
    13  H    2.195542   3.802914   3.802911   1.096877   2.514398
    14  H    2.186646   2.618926   3.159730   1.096496   3.083898
    15  C    5.166861   4.248888   4.248887   6.506560   5.281169
    16  H    4.245643   3.130905   2.586222   5.273767   4.430338
    17  H    4.245643   2.586223   3.130915   5.273772   4.768521
    18  C    6.511322   5.284212   5.284210   7.741390   6.684936
    19  H    5.284216   4.435828   4.774019   6.684096   5.460150
    20  H    5.284210   4.774014   4.435816   6.684086   5.167360
    21  C    7.741391   6.684093   6.684087   9.066176   7.817012
    22  H    6.684935   5.460144   5.167360   7.817010   6.803336
    23  H    6.684943   5.167371   5.460156   7.817022   7.028078
    24  H    7.864918   7.069413   6.844804   9.237701   7.786279
    25  H    8.663614   7.457443   7.457438   9.928473   8.778076
    26  H    7.864925   6.844820   7.069414   9.237711   7.984249
                   11         12         13         14         15
    11  H    0.000000
    12  H    3.083897   0.000000
    13  H    2.514397   1.769514   0.000000
    14  H    2.527533   1.770770   1.769511   0.000000
    15  C    5.281177   6.725044   7.354610   6.725052   0.000000
    16  H    4.768523   5.205138   6.254195   5.497089   2.163758
    17  H    4.430338   5.497091   6.254198   5.205148   2.163759
    18  C    6.684943   7.864915   8.663614   7.864924   1.538837
    19  H    5.167375   7.069414   7.457447   6.844822   1.099261
    20  H    5.460154   6.844803   7.457438   7.069413   1.099262
    21  C    7.817023   9.237700   9.928474   9.237712   2.574540
    22  H    7.028077   7.786275   8.778075   7.984246   2.161474
    23  H    6.803346   7.984253   8.778086   7.786296   2.161473
    24  H    7.984256   9.367157  10.049301   9.533074   2.842408
    25  H    8.778086  10.049298  10.833278  10.049309   3.529232
    26  H    7.786297   9.533072  10.049311   9.367181   2.842407
                   16         17         18         19         20
    16  H    0.000000
    17  H    1.764480   0.000000
    18  C    2.806656   2.806661   0.000000
    19  H    3.067773   2.509419   2.161335   0.000000
    20  H    2.509417   3.067773   2.161336   1.764855   0.000000
    21  C    4.241373   4.241381   1.538603   2.795770   2.795766
    22  H    2.581138   3.126211   1.098718   3.064454   2.505858
    23  H    3.126215   2.581148   1.098719   2.505851   3.064454
    24  H    4.463837   4.801084   2.186646   3.159735   2.618920
    25  H    4.926368   4.926375   2.195542   3.802913   3.802912
    26  H    4.801079   4.463849   2.186645   2.618924   3.159729
                   21         22         23         24         25
    21  C    0.000000
    22  H    2.165400   0.000000
    23  H    2.165400   1.763075   0.000000
    24  H    1.096494   2.527533   3.083897   0.000000
    25  H    1.096878   2.514398   2.514397   1.769514   0.000000
    26  H    1.096495   3.083896   2.527530   1.770772   1.769511
                   26
    26  H    0.000000
 Stoichiometry    C8H18
 Framework group  C1[X(C8H18)]
 Deg. of freedom    72
 Full point group                 C1      NOp   1
 Largest Abelian subgroup         C1      NOp   1
 Largest concise Abelian subgroup C1      NOp   1
                         Standard orientation:                         
 ---------------------------------------------------------------------
 Center     Atomic      Atomic             Coordinates (Angstroms)
 Number     Number       Type             X           Y           Z
 ---------------------------------------------------------------------
      1          6           0       -0.629649    0.443997    0.000008
      2          6           0        0.629649   -0.444000    0.000005
      3          6           0        1.952828    0.345495    0.000001
      4          1           0        0.604902   -1.099013   -0.882235
      5          1           0        0.604905   -1.099012    0.882246
      6          6           0        3.210314   -0.541493    0.000003
      7          1           0        1.979443    1.000473    0.882425
      8          1           0        1.979440    1.000466   -0.882428
      9          6           0        4.525827    0.256454   -0.000010
     10          1           0        3.184190   -1.196779   -0.881532
     11          1           0        3.184199   -1.196769    0.881543
     12          1           0        4.596405    0.899421   -0.885397
     13          1           0        5.401549   -0.404040   -0.000008
     14          1           0        4.596417    0.899430    0.885373
     15          6           0       -1.952828   -0.345496    0.000005
     16          1           0       -0.604904    1.099013   -0.882231
     17          1           0       -0.604903    1.099009    0.882249
     18          6           0       -3.210313    0.541494    0.000001
     19          1           0       -1.979446   -1.000470    0.882431
     20          1           0       -1.979439   -1.000468   -0.882424
     21          6           0       -4.525828   -0.256453   -0.000011
     22          1           0       -3.184189    1.196780   -0.881531
     23          1           0       -3.184199    1.196768    0.881545
     24          1           0       -4.596407   -0.899418   -0.885400
     25          1           0       -5.401549    0.404043   -0.000010
     26          1           0       -4.596418   -0.899426    0.885372
 ---------------------------------------------------------------------
 Rotational constants (GHZ):     10.7424485      0.4791778      0.4694279
 Standard basis: 6-31G(d) (6D, 7F)
 There are   156 symmetry adapted cartesian basis functions of A   symmetry.
 There are   156 symmetry adapted basis functions of A   symmetry.
   156 basis functions,   296 primitive gaussians,   156 cartesian basis functions
    33 alpha electrons       33 beta electrons
       nuclear repulsion energy       371.7624087598 Hartrees.
 NAtoms=   26 NActive=   26 NUniq=   26 SFac= 1.00D+00 NAtFMM=   60 NAOKFM=F Big=F
 Integral buffers will be    131072 words long.
 Raffenetti 2 integral format.
 Two-electron integral symmetry is turned on.
 One-electron integrals computed using PRISM.
 NBasis=   156 RedAO= T EigKep=  2.96D-03  NBF=   156
 NBsUse=   156 1.00D-06 EigRej= -1.00D+00 NBFU=   156
 Initial guess from the checkpoint file:  "/tmp/Gau-26740.chk"
 B after Tr=     0.000000    0.000000    0.000000
         Rot=    1.000000    0.000001    0.000000    0.000153 Ang=   0.02 deg.
 ExpMin= 1.61D-01 ExpMax= 3.05D+03 ExpMxC= 4.57D+02 IAcc=2 IRadAn=         4 AccDes= 0.00D+00
 Harris functional with IExCor=  402 and IRadAn=       4 diagonalized for initial guess.
 HarFok:  IExCor=  402 AccDes= 0.00D+00 IRadAn=         4 IDoV= 1 UseB2=F ITyADJ=14
 ICtDFT=  3500011 ScaDFX=  1.000000  1.000000  1.000000  1.000000
 FoFCou: FMM=F IPFlag=           0 FMFlag=      100000 FMFlg1=           0
         NFxFlg=           0 DoJE=T BraDBF=F KetDBF=T FulRan=T
         wScrn=  0.000000 ICntrl=     500 IOpCl=  0 I1Cent=   200000004 NGrid=           0
         NMat0=    1 NMatS0=      1 NMatT0=    0 NMatD0=    1 NMtDS0=    0 NMtDT0=    0
 Petite list used in FoFCou.
 Requested convergence on RMS density matrix=1.00D-08 within 128 cycles.
 Requested convergence on MAX density matrix=1.00D-06.
 Requested convergence on             energy=1.00D-06.
 No special actions if energy rises.
 Integral accuracy reduced to 1.0D-05 until final iterations.
 Initial convergence to 1.0D-05 achieved.  Increase integral accuracy.
 SCF Done:  E(RB3LYP) =  -315.712592061     A.U. after    9 cycles
            NFock=  9  Conv=0.60D-08     -V/T= 2.0106
 Calling FoFJK, ICntrl=      2127 FMM=F ISym2X=0 I1Cent= 0 IOpClX= 0 NMat=1 NMatS=1 NMatT=0.
 ***** Axes restored to original set *****
 -------------------------------------------------------------------
 Center     Atomic                   Forces (Hartrees/Bohr)
 Number     Number              X              Y              Z
 -------------------------------------------------------------------
      1        6          -0.001909519   -0.000981971    0.000315951
      2        6           0.001910039    0.000982183   -0.000315878
      3        6          -0.001636549   -0.000352201    0.000978010
      4        1          -0.001028295   -0.000804213    0.000371182
      5        1          -0.001306403   -0.000362018    0.000064734
      6        6           0.001682288    0.000843839   -0.000311023
      7        1           0.001011677    0.000910122   -0.000308393
      8        1           0.001338645    0.000390138    0.000051672
      9        6          -0.001392539    0.000875159    0.002530187
     10        1          -0.000652016   -0.000861623    0.000212301
     11        1          -0.001053486   -0.000223584   -0.000229422
     12        1           0.000376918    0.000263522   -0.000087938
     13        1          -0.000417851    0.000347969    0.000881222
     14        1           0.000435106    0.000170844   -0.000023367
     15        6           0.001636916    0.000352894   -0.000978189
     16        1           0.001306199    0.000361915   -0.000064897
     17        1           0.001028077    0.000804109   -0.000371087
     18        6          -0.001682886   -0.000844070    0.000311144
     19        1          -0.001338871   -0.000390416   -0.000051595
     20        1          -0.001011719   -0.000910291    0.000308611
     21        6           0.001394297   -0.000875862   -0.002529508
     22        1           0.001053518    0.000223664    0.000229361
     23        1           0.000652025    0.000861646   -0.000212372
     24        1          -0.000435649   -0.000170568    0.000023436
     25        1           0.000417447   -0.000347669   -0.000881647
     26        1          -0.000377370   -0.000263518    0.000087506
 -------------------------------------------------------------------
 Cartesian Forces:  Max     0.002530187 RMS     0.000916145

 GradGradGradGradGradGradGradGradGradGradGradGradGradGradGradGradGradGrad
 Berny optimization.
 Using GEDIIS/GDIIS optimizer.
 FormGI is forming the generalized inverse of G from B-inverse, IUseBI=4.
 Internal  Forces:  Max     0.003579803 RMS     0.001074845
 Search for a local minimum.
 Step number   2 out of a maximum of  146
 All quantities printed in internal units (Hartrees-Bohrs-Radians)
 Mixed Optimization -- RFO/linear search
 Update second derivatives using D2CorX and points    1    2
 DE= -5.12D-03 DEPred=-6.23D-03 R= 8.21D-01
 TightC=F SS=  1.41D+00  RLast= 2.90D-01 DXNew= 5.0454D-01 8.6870D-01
 Trust test= 8.21D-01 RLast= 2.90D-01 DXMaxT set to 5.05D-01
 ITU=  1  0
 Use linear search instead of GDIIS.
     Eigenvalues ---    0.00324   0.00325   0.00325   0.00329   0.00329
     Eigenvalues ---    0.00423   0.00423   0.03391   0.03391   0.03394
     Eigenvalues ---    0.03394   0.03466   0.03466   0.04750   0.04787
     Eigenvalues ---    0.04788   0.04789   0.04825   0.04830   0.05475
     Eigenvalues ---    0.05475   0.05546   0.05555   0.08483   0.08491
     Eigenvalues ---    0.08523   0.08524   0.08524   0.08526   0.12311
     Eigenvalues ---    0.12311   0.12346   0.12346   0.12346   0.12346
     Eigenvalues ---    0.15876   0.16000   0.16000   0.16000   0.16000
     Eigenvalues ---    0.16177   0.21935   0.21937   0.21947   0.21947
     Eigenvalues ---    0.21948   0.24135   0.29107   0.29117   0.29121
     Eigenvalues ---    0.29147   0.29175   0.29803   0.29985   0.32335
     Eigenvalues ---    0.32335   0.32335   0.32336   0.32337   0.32337
     Eigenvalues ---    0.32337   0.32354   0.32396   0.32397   0.32397
     Eigenvalues ---    0.32450   0.32498   0.32504   0.32505   0.32505
     Eigenvalues ---    0.32559   0.35461
 RFO step:  Lambda=-4.76603251D-04 EMin= 3.24390965D-03
 Quartic linear search produced a step of -0.09212.
 Iteration  1 RMS(Cart)=  0.01576051 RMS(Int)=  0.00002799
 Iteration  2 RMS(Cart)=  0.00002132 RMS(Int)=  0.00002289
 Iteration  3 RMS(Cart)=  0.00000000 RMS(Int)=  0.00002289
 Variable       Old X    -DE/DX   Delta X   Delta X   Delta X     New X
                                 (Linear)    (Quad)   (Total)
    R1        2.91188  -0.00358  -0.00131  -0.00936  -0.01067   2.90121
    R2        2.91171  -0.00357  -0.00131  -0.00933  -0.01064   2.90107
    R3        2.07698   0.00055   0.00233  -0.00164   0.00070   2.07768
    R4        2.07698   0.00055   0.00233  -0.00164   0.00070   2.07768
    R5        2.91171  -0.00357  -0.00131  -0.00933  -0.01064   2.90107
    R6        2.07698   0.00055   0.00233  -0.00164   0.00070   2.07768
    R7        2.07698   0.00055   0.00233  -0.00164   0.00070   2.07768
    R8        2.90798  -0.00242  -0.00101  -0.00615  -0.00717   2.90081
    R9        2.07730   0.00052   0.00231  -0.00168   0.00062   2.07793
   R10        2.07730   0.00052   0.00231  -0.00168   0.00062   2.07793
   R11        2.90754  -0.00351  -0.00221  -0.00767  -0.00987   2.89766
   R12        2.07628   0.00024   0.00230  -0.00245  -0.00015   2.07613
   R13        2.07628   0.00024   0.00230  -0.00244  -0.00014   2.07613
   R14        2.07207   0.00032   0.00251  -0.00250   0.00001   2.07208
   R15        2.07280  -0.00060   0.00235  -0.00486  -0.00251   2.07029
   R16        2.07208   0.00032   0.00251  -0.00250   0.00001   2.07208
   R17        2.90798  -0.00242  -0.00101  -0.00615  -0.00717   2.90081
   R18        2.07730   0.00052   0.00231  -0.00168   0.00062   2.07793
   R19        2.07730   0.00052   0.00231  -0.00168   0.00062   2.07793
   R20        2.90754  -0.00351  -0.00221  -0.00767  -0.00987   2.89766
   R21        2.07628   0.00024   0.00230  -0.00244  -0.00014   2.07613
   R22        2.07628   0.00024   0.00230  -0.00245  -0.00015   2.07613
   R23        2.07207   0.00032   0.00251  -0.00250   0.00001   2.07208
   R24        2.07280  -0.00060   0.00235  -0.00486  -0.00251   2.07029
   R25        2.07207   0.00032   0.00251  -0.00250   0.00001   2.07208
    A1        1.98945  -0.00294  -0.00475  -0.00406  -0.00876   1.98070
    A2        1.90185   0.00103   0.00046   0.00437   0.00487   1.90673
    A3        1.90185   0.00103   0.00046   0.00437   0.00487   1.90673
    A4        1.90149   0.00104   0.00049   0.00450   0.00503   1.90652
    A5        1.90149   0.00104   0.00049   0.00450   0.00503   1.90652
    A6        1.86361  -0.00111   0.00319  -0.01455  -0.01134   1.85227
    A7        1.98945  -0.00294  -0.00475  -0.00406  -0.00876   1.98070
    A8        1.90185   0.00103   0.00046   0.00437   0.00487   1.90673
    A9        1.90185   0.00103   0.00046   0.00437   0.00487   1.90673
   A10        1.90149   0.00104   0.00049   0.00450   0.00503   1.90652
   A11        1.90149   0.00104   0.00049   0.00450   0.00503   1.90652
   A12        1.86362  -0.00111   0.00319  -0.01455  -0.01135   1.85227
   A13        1.98931  -0.00283  -0.00478  -0.00343  -0.00815   1.98116
   A14        1.90296   0.00095   0.00038   0.00389   0.00430   1.90726
   A15        1.90296   0.00095   0.00038   0.00389   0.00430   1.90726
   A16        1.90039   0.00107   0.00059   0.00491   0.00554   1.90592
   A17        1.90039   0.00107   0.00059   0.00491   0.00554   1.90592
   A18        1.86377  -0.00112   0.00318  -0.01510  -0.01191   1.85186
   A19        1.98204  -0.00234  -0.00385  -0.00298  -0.00680   1.97524
   A20        1.90111   0.00095   0.00116   0.00386   0.00507   1.90618
   A21        1.90111   0.00095   0.00116   0.00386   0.00507   1.90618
   A22        1.90671   0.00071  -0.00070   0.00385   0.00316   1.90987
   A23        1.90671   0.00071  -0.00070   0.00384   0.00316   1.90987
   A24        1.86238  -0.00092   0.00323  -0.01317  -0.00992   1.85246
   A25        1.93815   0.00034  -0.00114   0.00350   0.00238   1.94053
   A26        1.95016  -0.00125  -0.00345  -0.00236  -0.00577   1.94438
   A27        1.93815   0.00034  -0.00114   0.00350   0.00238   1.94053
   A28        1.87728   0.00047   0.00179   0.00013   0.00195   1.87923
   A29        1.87970  -0.00034   0.00240  -0.00523  -0.00283   1.87686
   A30        1.87727   0.00047   0.00179   0.00014   0.00196   1.87923
   A31        1.98931  -0.00283  -0.00478  -0.00343  -0.00815   1.98116
[...]
 ,0.00001009,0.00005823,-0.00005183,-0.00004364,-0.00001580,0.00001563,
 0.00002933,0.00004924,-0.00016203,0.00000460,-0.00000906,-0.00000275,0
 .00000219,0.00000531,0.00000039,0.00001777,0.00002424,0.00002165,-0.00
 000425,0.00000001,-0.00000404,0.00000115,0.00000231,0.00000305,-0.0000
 0554,-0.00000145,0.00000165,-0.05694143,-0.03018364,0.01735856,-0.0017
 8536,0.00052414,0.00363670,0.00060077,-0.00051649,-0.00077793,-0.00266
 420,-0.01328338,0.00670931,0.05850967,0.00077377,0.00517307,-0.0034658
 9,0.00013518,0.00075707,-0.00025584,0.00015545,0.00044050,-0.00009284,
 -0.00006312,-0.00002279,-0.00002304,0.00015040,0.00041625,0.00036573,-
 0.00007286,-0.00004164,0.00008275,-0.00000845,-0.00001297,0.00000665,0
 .00004924,-0.00014629,-0.00012636,0.00002313,0.00002477,0.00001768,0.0
 0000227,-0.00000290,0.00000136,-0.00000702,0.00001180,-0.00000237,0.00
 000056,0.00000220,-0.00000311,-0.00000591,0.00000612,0.00001725,-0.000
 00392,-0.00000192,-0.00000115,-0.03029750,-0.22931577,0.10680521,0.000
 53204,0.00084611,-0.00172090,-0.00060032,0.00053093,0.00032226,-0.0033
 8979,-0.02168719,0.01108939,0.03572880,0.25197493,0.00408643,0.0231402
 5,-0.01566271,-0.00000757,0.00203700,0.00097491,0.00007969,-0.00034260
 ,0.00001158,-0.00000380,-0.00006038,-0.00005433,-0.00020512,-0.0012499
 6,-0.00011826,0.00000901,-0.00003999,0.00001946,-0.00000649,0.00003373
 ,0.00000568,-0.00016203,-0.00012636,0.00030314,-0.00000984,-0.00000938
 ,0.00000398,-0.00000460,-0.00000136,-0.00000804,-0.00001422,-0.0000756
 4,-0.00002779,-0.00000235,-0.00000012,0.00001421,0.00000150,-0.0000029
 5,-0.00001042,0.00000381,0.00000383,0.00000060,0.01745473,0.10681048,-
 0.11121729,0.00364266,-0.00171758,-0.00378998,-0.00019602,-0.00051860,
 0.00125423,-0.00288483,-0.01944232,0.00975058,-0.02163963,-0.11472873,
 0.12391613,-0.01921292,0.00746817,-0.00551807,0.00017264,-0.00065395,-
 0.00121428,0.00037338,-0.00009396,0.00029068,0.00086895,0.00043301,0.0
 0080175,0.00006308,-0.00000485,0.00008250,-0.00001866,-0.00002111,0.00
 004795,0.00021338,-0.00015109,-0.00022220,-0.00004364,-0.00000845,-0.0
 0000649,0.00001980,0.00002043,0.00000517,0.00003424,0.00002197,0.00004
 814,0.00000176,0.00000679,0.00000139,-0.00000697,-0.00000491,0.0000006
 0,-0.00000619,0.00001029,0.00001576,0.00000558,-0.00000891,-0.00000378
 ,-0.24557155,0.07205560,-0.06953757,0.00060001,-0.00059886,-0.00019486
 ,-0.00150821,0.00030195,0.00365539,-0.01343443,0.00423359,-0.00528266,
 0.00508833,-0.00106120,0.00135071,0.27049740,0.00518642,-0.00256972,0.
 00174400,0.00076631,0.00010725,0.00081275,-0.00017038,-0.00000599,-0.0
 0020175,-0.00031021,0.00003130,-0.00055321,0.00008556,-0.00000616,0.00
 000604,0.00003085,-0.00000769,-0.00001205,-0.00015109,0.00002543,0.000
 07103,-0.00001580,-0.00001297,0.00003373,-0.00001310,-0.00000292,-0.00
 000821,-0.00002329,-0.00000037,-0.00003357,0.00000332,-0.00000583,0.00
 000018,0.00000021,0.00000064,0.00000256,0.00000378,-0.00000343,-0.0000
 0514,-0.00000654,0.00000282,0.00000588,0.07218470,-0.07788082,0.027511
 26,-0.00051868,0.00053401,-0.00051634,0.00030404,0.00086119,-0.0015163
 6,-0.02186868,0.00707641,-0.00905325,0.02596216,-0.00947990,0.00897892
 ,-0.07928259,0.08171052,0.02539594,-0.01024268,0.00756266,0.00086646,0
 .00040213,0.00167878,0.00022564,0.00009338,-0.00000077,-0.00055131,0.0
 0007441,-0.00021440,-0.00010517,-0.00007445,-0.00007270,-0.00012716,0.
 00003881,0.00001426,-0.00022220,0.00007103,-0.00005263,0.00001563,0.00
 000665,0.00000568,0.00001032,0.00001763,0.00001648,-0.00002648,-0.0000
 2979,-0.00003210,-0.00000301,-0.00000301,-0.00000467,0.00000226,-0.000
 00002,-0.00000053,-0.00000396,0.00000168,0.00000647,-0.00000127,0.0000
 0554,0.00000376,-0.06961173,0.02751982,-0.07402221,-0.00078203,0.00032
 121,0.00125191,0.00366385,-0.00151061,-0.00408221,-0.01909244,0.006760
 56,-0.00824279,-0.01511815,0.00540660,-0.00565469,0.07614759,-0.025647
 01,0.08219292,-0.00251532,-0.00250022,-0.00190999,0.00127328,-0.000224
 34,-0.00089281,-0.00040372,-0.00035911,-0.00017243,-0.00001993,0.00011
 254,0.00003837,0.00000088,-0.00002315,0.00004992,0.00020678,0.00004470
 ,-0.00011004,0.00001980,-0.00001310,0.00001032,0.00000460,0.00002313,-
 0.00000984,-0.00007603,-0.00006579,-0.00003187,-0.00001777,0.00000448,
 -0.00000786,-0.00000347,-0.00001214,0.00000617,0.00000602,0.00001032,-
 0.00000034,0.00001728,-0.00002531,-0.00005095,0.00000869,0.00000282,0.
 00000524,0.01035525,-0.00001679,-0.00952931,-0.00008459,0.00013179,0.0
 0006006,0.00039678,-0.00019918,0.00016612,-0.12185710,0.01168333,0.053
 39441,0.00017835,-0.00007179,-0.00030555,0.00057734,-0.00052560,-0.001
 10660,0.54047008,-0.00272636,-0.00353160,-0.00169526,0.00110048,0.0005
 3389,-0.00116226,-0.00039710,-0.00040543,-0.00019225,-0.00005300,0.000
 00965,-0.00001298,0.00005384,0.00000294,0.00012275,0.00018934,0.000050
 51,-0.00011994,0.00002043,-0.00000292,0.00001763,-0.00000906,0.0000247
 7,-0.00000938,-0.00006579,-0.00006575,-0.00002580,-0.00000789,0.000002
 98,-0.00000076,-0.00000244,-0.00001540,0.00000798,0.00000250,0.0000077
 4,-0.00000039,0.00001634,-0.00001792,-0.00004276,0.00000980,0.00000132
 ,0.00000345,0.01475573,-0.00527278,-0.02084941,0.00004463,0.00042763,-
 0.00038138,-0.00012272,0.00000284,0.00010866,0.01118254,-0.08449094,-0
 .01428103,0.00082821,0.00054643,-0.00041155,0.00043160,0.00088984,0.00
 112420,0.01262678,0.57248113,-0.00223653,-0.00190061,-0.00135650,0.001
 02011,0.00004071,-0.00022073,-0.00022728,-0.00022674,-0.00014359,-0.00
 001907,0.00007005,0.00001423,-0.00002050,-0.00004069,0.00000014,0.0000
 9881,0.00001139,-0.00005875,0.00000517,-0.00000821,0.00001648,-0.00000
 275,0.00001768,0.00000398,-0.00003187,-0.00002580,-0.00001482,-0.00000
 548,0.00000335,-0.00000152,-0.00000005,0.00000145,0.00000256,0.0000014
 6,0.00000355,-0.00000229,0.00000919,-0.00000494,-0.00001407,0.00000223
 ,-0.00000126,0.00000146,0.01180091,-0.00743561,-0.02156447,-0.00008098
 ,-0.00008414,0.00006294,0.00029172,-0.00019829,0.00000635,0.05267131,-
 0.01473576,-0.15073667,0.00035158,0.00155033,0.00160207,0.00091792,0.0
 0084870,0.00085967,0.04664488,-0.01042549,0.51435274,0.00008398,0.0006
 8027,0.00041309,-0.00006156,0.00005969,0.00000420,0.00000082,0.0000527
 6,-0.00002392,-0.00004272,-0.00002566,-0.00000762,-0.00001680,0.000107
 57,0.00004584,0.00000659,-0.00000158,0.00000971,0.00000176,0.00000332,
 -0.00000301,0.00001777,-0.00000702,-0.00001422,-0.00000347,-0.00000244
 ,-0.00000005,-0.00000475,-0.00000225,-0.00000153,-0.00000390,0.0000013
 3,-0.00000141,0.00000236,0.00000125,-0.00000044,0.00000014,-0.00000260
 ,-0.00000266,-0.00000002,0.00000133,-0.00000022,-0.00263371,-0.0133590
 9,0.00669470,0.00039227,0.00015465,-0.00020898,0.00006181,0.00008851,-
 0.00010302,-0.05725923,-0.03079649,0.01745373,-0.00044653,-0.00232391,
 -0.00166861,0.00029211,0.00022877,0.00077705,-0.00365917,-0.01739498,0
 .01130354,0.05866063,-0.00028425,0.00027257,0.00182007,0.00003834,0.00
 029147,-0.00042645,-0.00003356,-0.00000969,-0.00003863,-0.00000615,-0.
 00001719,0.00003397,0.00010707,0.00034768,0.00014342,0.00002584,0.0000
 1142,-0.00000729,0.00000679,-0.00000583,-0.00000301,0.00002424,0.00001
 180,-0.00007564,-0.00001214,-0.00001540,0.00000145,-0.00000367,-0.0000
 0239,0.00000094,0.00000133,0.00001382,0.00000254,0.00000198,0.00000643
 ,-0.00000737,0.00000357,-0.00000309,-0.00000767,0.00000079,-0.00000112
 ,0.00000080,-0.00337845,-0.02183994,0.01088344,0.00049979,0.00042395,-
 0.00126082,-0.00000057,-0.00000956,-0.00007620,-0.03115696,-0.23180067
 ,0.10787869,-0.00228140,-0.00205753,-0.00373909,-0.00015460,0.00122498
 ,-0.00011158,0.00128670,0.00667873,-0.00420472,0.03604169,0.25378959,-
 0.00034344,-0.00044781,0.00161184,-0.00019452,-0.00018480,0.00014095,0
 .00004962,0.00011836,-0.00000431,-0.00000041,0.00000212,0.00000765,0.0
 0004489,0.00013764,-0.00014156,-0.00002147,0.00000421,0.00002108,0.000
 00139,0.00000018,-0.00000467,0.00002165,-0.00000237,-0.00002779,0.0000
 0617,0.00000798,0.00000256,0.00000048,-0.00000069,0.00000004,-0.000001
 41,0.00000254,0.00000371,0.00000020,-0.00000219,0.00000120,-0.00000236
 ,0.00000032,0.00000304,-0.00000002,0.00000055,-0.00000049,-0.00290399,
 -0.01942722,0.00994432,0.00001736,0.00037020,-0.00011680,0.00008274,0.
 00000875,-0.00007182,0.01761417,0.10777249,-0.11156916,-0.00161772,-0.
 00364982,-0.00222883,0.00049782,0.00077753,0.00085066,0.00438309,0.023
 22069,-0.01526741,-0.02171958,-0.11541118,0.12445710,0.00020583,0.0004
 8459,0.00091837,0.00042056,-0.00022492,0.00002544,-0.00002932,-0.00005
 606,-0.00002037,0.00009156,0.00015147,0.00024386,-0.00004179,-0.000006
 43,0.00000034,0.00002542,0.00001385,-0.00001535,0.00003424,-0.00002329
 ,-0.00002648,0.00000219,0.00000227,-0.00000460,-0.00001777,-0.00000789
 ,-0.00000548,0.00000592,-0.00000168,0.00000646,-0.00000475,-0.00000367
 ,0.00000048,-0.00000015,0.00000084,-0.00000011,0.00000333,-0.00000333,
 -0.00000836,0.00000824,-0.00000291,0.00000046,-0.01340758,0.00409194,-
 0.00552728,0.00006143,-0.00006189,-0.00000626,0.00087945,-0.00031574,-
 0.00055383,-0.24814511,0.07235371,-0.07051478,0.00031119,-0.00016617,0
 .00050487,-0.00015701,-0.00242751,-0.00146833,-0.01789860,0.00686743,-
 0.00528217,0.00521711,-0.00097153,0.00127183,0.27219176,-0.00065667,0.
 00086781,0.00081983,-0.00024903,-0.00001810,0.00006761,0.00011336,0.00
 000592,0.00006475,0.00014833,-0.00006173,0.00006372,-0.00002544,-0.000
 01946,0.00000171,-0.00001723,0.00000776,0.00001809,0.00002197,-0.00000
 036,-0.00002979,0.00000531,-0.00000290,-0.00000136,0.00000448,0.000002
 98,0.00000335,-0.00000168,-0.00000143,0.00000390,-0.00000225,-0.000002
 39,-0.00000069,0.00000113,-0.00000056,0.00000078,-0.00000242,-0.000000
 46,0.00000039,-0.00000038,0.00000196,-0.00000110,-0.02195354,0.0071907
 0,-0.00900578,0.00015830,-0.00002208,-0.00005575,0.00044055,0.00003427
 ,0.00007546,0.07259896,-0.07813511,0.02774191,0.00022783,0.00119662,0.
 00077583,-0.00236921,-0.00248524,-0.00364725,0.00537109,-0.00239111,0.
 00173080,0.02601114,-0.00949741,0.00896700,-0.07973058,0.08204173,-0.0
 0136568,0.00117561,0.00089474,0.00015852,-0.00021531,-0.00003161,0.000
 02607,-0.00001679,0.00001021,0.00023955,0.00006619,0.00015949,-0.00000
 614,0.00003402,0.00000898,0.00001055,0.00000326,0.00000592,0.00004814,
 -0.00003357,-0.00003210,0.00000039,0.00000136,-0.00000804,-0.00000786,
 -0.00000076,-0.00000152,0.00000646,0.00000390,0.00000914,-0.00000153,0
 .00000094,0.00000004,-0.00000066,0.00000080,-0.00000092,0.00000157,-0.
 00000116,-0.00000278,0.00000451,-0.00000333,-0.00000019,-0.01912478,0.
 00671763,-0.00831246,-0.00000272,-0.00002166,-0.00005892,0.00081020,-0
 .00055543,-0.00021429,-0.07084161,0.02774347,-0.07434891,0.00079946,-0
 .00010363,0.00085995,-0.00137367,-0.00364498,-0.00209064,0.02645241,-0
 .01008992,0.00804185,-0.01515950,0.00537979,-0.00567578,0.07689045,-0.
 02577247,0.08267393,0.00034193,-0.00009159,0.00021292,-0.00001910,-0.0
 0002966,0.00004877,0.00002944,0.00002503,-0.00000467,0.00003057,0.0000
 2300,0.00004427,0.00000193,0.00000645,0.00000105,-0.00002847,-0.000006
 50,0.00000378,0.00000558,-0.00000654,-0.00000127,-0.00000554,-0.000003
 92,0.00000381,0.00000869,0.00000980,0.00000223,0.00000824,-0.00000038,
 0.00000451,-0.00000002,0.00000079,-0.00000002,-0.00000268,-0.00000285,
 0.00000029,-0.00000114,0.00000592,0.00000912,0.00000152,-0.00000289,-0
 .00000095,0.00044888,-0.00071444,-0.00115891,-0.00004170,-0.00001149,-
 0.00000113,0.00019076,-0.00014543,-0.00021042,-0.01851479,0.00699932,-
 0.00554085,0.00005549,0.00002136,0.00006788,0.00077822,0.00049091,0.00
 078118,-0.25467799,0.08013076,-0.06836708,0.00052122,-0.00060724,-0.00
 014106,-0.00109247,0.00036296,0.00403659,0.27805106,-0.00015326,0.0000
 1227,-0.00021471,0.00000990,-0.00001293,-0.00000503,-0.00000237,0.0000
 0551,-0.00000656,-0.00002215,-0.00000080,-0.00003426,0.00000413,-0.000
 00624,-0.00000074,0.00000181,-0.00000369,0.00000157,-0.00000891,0.0000
 0282,0.00000554,-0.00000145,-0.00000192,0.00000383,0.00000282,0.000001
 32,-0.00000126,-0.00000291,0.00000196,-0.00000333,0.00000133,-0.000001
 12,0.00000055,-0.00000039,-0.00000095,0.00000115,-0.00000029,0.0000005
 0,0.00000142,-0.00000289,0.00000087,0.00000030,0.00077005,0.00003637,0
 .00092112,-0.00001738,-0.00001697,0.00004138,-0.00015484,0.00002661,0.
 00007665,0.00476513,-0.00256946,0.00158320,0.00007835,-0.00002885,-0.0
 0001071,-0.00029602,0.00003792,-0.00050690,0.08006500,-0.08213166,0.02
 675483,-0.00054938,0.00040925,-0.00040566,0.00047385,0.00090056,-0.001
 17026,-0.08953732,0.08326295,0.00020918,0.00010683,-0.00004094,-0.0001
 3967,0.00003749,0.00001699,0.00001931,0.00002469,0.00001489,-0.0000267
 4,-0.00003118,-0.00003517,-0.00000264,-0.00000217,-0.00000474,-0.00001
 140,-0.00000374,0.00000512,-0.00000378,0.00000588,0.00000376,0.0000016
 5,-0.00000115,0.00000060,0.00000524,0.00000345,0.00000146,0.00000046,-
 0.00000110,-0.00000019,-0.00000022,0.00000080,-0.00000049,-0.00000014,
 -0.00000087,0.00000011,-0.00000113,0.00000197,0.00000358,-0.00000095,0
 .00000030,-0.00000041,0.00089714,0.00039357,0.00188092,0.00001734,0.00
 000447,0.00001126,-0.00023598,0.00007930,-0.00002934,0.02568597,-0.010
 60194,0.00857491,-0.00012810,-0.00005912,-0.00008875,-0.00063954,0.000
 11714,-0.00021084,-0.06875152,0.02693227,-0.07184608,-0.00077800,0.000
 32768,0.00130949,0.00372079,-0.00153893,-0.00429834,0.07272665,-0.0287
 5567,0.07650519,0.00094017,0.00075660,0.00077840,-0.00035820,-0.000020
 32,0.00028950,0.00011028,0.00010455,0.00005184,0.00001068,-0.00002136,
 0.00000367,-0.00000522,0.00000852,-0.00002032,-0.00005526,-0.00000843,
 0.00003300,-0.00000619,0.00000378,-0.00000396,0.00000115,-0.00000591,0
 .00000150,0.00001728,0.00001634,0.00000919,0.00000333,-0.00000242,0.00
 000157,0.00000014,0.00000357,-0.00000236,-0.00000040,-0.00000133,-0.00
 000042,-0.00000467,0.00000421,0.00001028,-0.00000114,-0.00000029,-0.00
 000113,-0.00280130,-0.00004339,0.00269137,0.00002442,-0.00004465,-0.00
 001134,0.00002724,0.00000771,-0.00012442,0.00964817,0.01580259,0.01281
 894,-0.00016880,-0.00000602,-0.00012648,0.00031033,-0.00008300,0.00034
 997,-0.09693396,-0.07628206,-0.06751325,0.00067576,-0.00029511,-0.0008
 5518,0.00087277,0.00004098,-0.00082517,-0.01198263,-0.02140251,-0.0168
 4490,0.10229309,-0.00068031,0.00007061,-0.00013842,0.00021101,0.000056
 20,-0.00010025,-0.00010091,-0.00007081,-0.00001222,-0.00001219,0.00000
 379,-0.00000364,-0.00001020,-0.00000670,0.00000886,0.00005453,0.000018
 10,-0.00001541,0.00001029,-0.00000343,0.00000168,0.00000231,0.00000612
 ,-0.00000295,-0.00002531,-0.00001792,-0.00000494,-0.00000333,-0.000000
 46,-0.00000116,-0.00000260,-0.00000309,0.00000032,0.00000296,0.0000049
 8,-0.00000112,0.00000421,-0.00000999,-0.00001821,0.00000592,0.00000050
 ,0.00000197,0.00170165,0.00065391,-0.00093549,0.00007048,0.00000325,-0
 .00010799,0.00003298,-0.00002751,0.00003546,-0.00203312,-0.00387947,-0
 .00178711,0.00011608,0.00055505,0.00022782,-0.00022807,0.00001318,-0.0
 0006977,-0.07595771,-0.17145024,-0.10641460,0.00034428,0.00067160,-0.0
 0004260,0.00021972,-0.00016295,0.00011752,0.00478194,0.00934050,0.0082
 3939,0.08353322,0.18257958,-0.00129637,-0.00144317,-0.00031238,0.00062
 352,0.00010980,-0.00041469,-0.00024484,-0.00019879,-0.00006360,-0.0000
 3043,0.00001995,0.00000191,0.,-0.00002339,0.00002829,0.00012390,0.0000
 4175,-0.00005773,0.00001576,-0.00000514,0.00000647,0.00000305,0.000017
 25,-0.00001042,-0.00005095,-0.00004276,-0.00001407,-0.00000836,0.00000
 039,-0.00000278,-0.00000266,-0.00000767,0.00000304,0.00000449,0.000008
 95,-0.00000164,0.00001028,-0.00001821,-0.00003566,0.00000912,0.0000014
 2,0.00000358,0.00521106,0.00064906,-0.00356290,-0.00003729,0.00010873,
 -0.00002425,0.00010427,-0.00005376,0.00000369,-0.01293426,-0.01798236,
 -0.01558356,0.00004107,-0.00022254,0.00024587,0.00014924,0.00035973,0.
 00030861,-0.06704491,-0.10612008,-0.14233406,-0.00063245,0.00066025,0.
 00054926,0.00013341,0.00015756,0.00118680,-0.00392579,-0.00624174,-0.0
 0613587,0.07144525,0.11826413,0.15403223,-0.00006372,0.00000337,-0.000
 06957,-0.00000190,0.00005595,-0.00005177,0.00001474,-0.00000647,-0.000
 00491,0.00000225,0.00000510,-0.00000084,0.00001829,0.00002241,0.000022
 30,-0.00000917,-0.00000574,0.00000172,-0.00000697,0.00000021,0.0000022
 6,-0.00000425,0.00000056,-0.00000235,0.00000602,0.00000250,0.00000146,
 -0.00000015,0.00000113,-0.00000066,0.00000236,0.00000198,0.00000020,-0
 .00000111,-0.00000045,-0.00000070,-0.00000040,0.00000296,0.00000449,-0
 .00000268,-0.00000039,-0.00000014,0.00025456,-0.00040496,-0.00104134,0
 .00002427,0.00004289,-0.00015771,-0.00004898,-0.00001190,0.00001619,-0
 .00353336,-0.01804724,0.01139378,0.00039071,0.00050577,0.00003584,0.00
 006302,0.00014946,-0.00001605,-0.05536750,-0.03119901,0.01866819,-0.00
 180248,0.00114751,0.00380976,0.00046353,-0.00049797,-0.00077555,0.0058
 9302,0.02597969,-0.01571898,-0.00261705,-0.01203784,0.00833387,0.05632
 695,0.00018009,0.00035693,-0.00010879,-0.00008282,-0.00004513,0.000082
 85,0.00003915,0.00002674,0.00001379,0.00000284,-0.00000287,0.00000141,
 -0.00000656,0.00000642,-0.00000368,-0.00002348,-0.00001349,0.00001080,
 -0.00000491,0.00000064,-0.00000002,0.00000001,0.00000220,-0.00000012,0
 .00001032,0.00000774,0.00000355,0.00000084,-0.00000056,0.00000080,0.00
 000125,0.00000644,-0.00000219,-0.00000045,-0.00000026,-0.00000202,-0.0
 0000133,0.00000498,0.00000895,-0.00000285,-0.00000095,-0.00000087,0.00
 014372,0.00103160,-0.00029593,0.00002983,-0.00014550,-0.00009536,-0.00
 001252,-0.00000563,0.00000644,0.00045045,0.00623729,-0.00386136,0.0001
 3053,0.00031589,0.00046944,-0.00004563,-0.00005445,-0.00000060,-0.0313
 6845,-0.23188467,0.11467401,0.00068881,0.00110653,-0.00181624,-0.00065
 606,0.00055099,0.00038479,-0.00169799,-0.00926482,0.00472066,-0.002065
 29,-0.01834481,0.01196065,0.03429049,0.25010874,0.00010030,-0.00032585
 ,0.00002004,-0.00000657,-0.00004975,0.00003199,-0.00000258,-0.00000093
 ,0.00000836,-0.00000376,-0.00000132,-0.00000844,-0.00001371,-0.0000740
 7,-0.00003011,0.00000329,0.00000754,-0.00000438,0.00000060,0.00000256,
 -0.00000053,-0.00000404,-0.00000311,0.00001421,-0.00000034,-0.00000039
 ,-0.00000229,-0.00000011,0.00000078,-0.00000092,-0.00000044,-0.0000073
 7,0.00000120,-0.00000070,-0.00000202,0.00000334,-0.00000042,-0.0000011
 2,-0.00000164,0.00000029,0.00000115,0.00000011,-0.00016168,0.00207778,
 0.00108003,-0.00016458,-0.00011841,0.00030927,-0.00001169,0.00003743,0
 .00000720,0.00365003,0.02309143,-0.01521326,-0.00022150,-0.00120988,-0
 .00010130,-0.00001947,-0.00007758,-0.00007069,0.01871302,0.11428301,-0
 .12140350,0.00362336,-0.00176338,-0.00379430,-0.00028335,-0.00043956,0
 .00122544,0.00140912,0.00796528,-0.00563712,-0.00215557,-0.01724127,0.
 01218386,-0.02444950,-0.12615095,0.13138344\\0.00027774,0.00012712,-0.
 00006867,-0.00027774,-0.00012711,0.00006867,0.00026847,0.00011432,-0.0
 0007869,0.00004027,0.00000060,0.00000739,0.00002025,0.00003243,-0.0000
 1466,-0.00020115,-0.00007413,0.00007559,-0.00004113,0.00000520,-0.0000
 0351,-0.00001867,-0.00003053,0.00002123,0.00010217,0.00001492,-0.00007
 123,0.00004688,-0.00000590,-0.00001173,0.00002860,0.00002316,-0.000031
 84,-0.00001747,0.00001284,0.00002437,-0.00003771,-0.00002003,0.0000053
 2,-0.00001283,0.00000544,0.00002951,-0.00026848,-0.00011434,0.00007867
 ,-0.00002025,-0.00003242,0.00001465,-0.00004028,-0.00000060,-0.0000073
 9,0.00020118,0.00007415,-0.00007561,0.00001866,0.00003052,-0.00002122,
 0.00004115,-0.00000520,0.00000353,-0.00010220,-0.00001491,0.00007126,-
 0.00002860,-0.00002315,0.00003185,-0.00004690,0.00000589,0.00001173,0.
 00001284,-0.00000544,-0.00002951,0.00003771,0.00002004,-0.00000532,0.0
 0001747,-0.00001284,-0.00002438\\\@


 LENDING MONEY TO FRIENDS CAUSES THEM TO LOSE THEIR MEMORIES.

    --  PETER'S THEORY OF RECIPROCAL INHIBITION OF FISCAL RECALL
 Job cpu time:       0 days  0 hours 31 minutes  3.7 seconds.
 File lengths (MBytes):  RWF=     77 Int=      0 D2E=      0 Chk=      3 Scr=      1
 Normal termination of Gaussian 09 at Tue Feb  6 12:16:46 2018.
