 Entering Gaussian System, Link 0=g09
 Input=P4.gjf
 Output=P4.log
 Initial command:
 /share/apps/g09/l1.exe "/tmp/Gau-1342.inp" -scrdir="/tmp/"
 Entering Link 1 = /share/apps/g09/l1.exe PID=      1343.
  
 Copyright (c) 1988,1990,1992,1993,1995,1998,2003,2009,2013,
            Gaussian, Inc.  All Rights Reserved.
  
 This is part of the Gaussian(R) 09 program.  It is based on
 the Gaussian(R) 03 system (copyright 2003, Gaussian, Inc.),
 the Gaussian(R) 98 system (copyright 1998, Gaussian, Inc.),
 the Gaussian(R) 94 system (copyright 1995, Gaussian, Inc.),
 the Gaussian 92(TM) system (copyright 1992, Gaussian, Inc.),
 the Gaussian 90(TM) system (copyright 1990, Gaussian, Inc.),
 the Gaussian 88(TM) system (copyright 1988, Gaussian, Inc.),
 the Gaussian 86(TM) system (copyright 1986, Carnegie Mellon
 University), and the Gaussian 82(TM) system (copyright 1983,
 Carnegie Mellon University). Gaussian is a federally registered
 trademark of Gaussian, Inc.
  
 This software contains proprietary and confidential information,
 including trade secrets, belonging to Gaussian, Inc.
  
 This software is provided under written license and may be
 used, copied, transmitted, or stored only in accord with that
 written license.
  
 The following legend is applicable only to US Government
 contracts under FAR:
  
                    RESTRICTED RIGHTS LEGEND
  
 Use, reproduction and disclosure by the US Government is
 subject to restrictions as set forth in subparagraphs (a)
 and (c) of the Commercial Computer Software - Restricted
 Rights clause in FAR 52.227-19.
  
 Gaussian, Inc.
 340 Quinnipiac St., Bldg. 40, Wallingford CT 06492
  
  
 ---------------------------------------------------------------
 Warning -- This program may not be used in any manner that
 competes with the business of Gaussian, Inc. or will provide
 assistance to any competitor of Gaussian, Inc.  The licensee
 of this program is prohibited from giving any competitor of
 Gaussian, Inc. access to this program.  By using this program,
 the user acknowledges that Gaussian, Inc. is engaged in the
 business of creating and licensing software in the field of
 computational chemistry and represents and warrants to the
 licensee that it is not a competitor of Gaussian, Inc. and that
 it will not use this program in any manner prohibited above.
 ---------------------------------------------------------------
  

 Cite this work as:
 Gaussian 09, Revision D.01,
 M. J. Frisch, G. W. Trucks, H. B. Schlegel, G. E. Scuseria, 
 M. A. Robb, J. R. Cheeseman, G. Scalmani, V. Barone, B. Mennucci, 
 G. A. Petersson, H. Nakatsuji, M. Caricato, X. Li, H. P. Hratchian, 
 A. F. Izmaylov, J. Bloino, G. Zheng, J. L. Sonnenberg, M. Hada, 
 M. Ehara, K. Toyota, R. Fukuda, J. Hasegawa, M. Ishida, T. Nakajima, 
 Y. Honda, O. Kitao, H. Nakai, T. Vreven, J. A. Montgomery, Jr., 
 J. E. Peralta, F. Ogliaro, M. Bearpark, J. J. Heyd, E. Brothers, 
 K. N. Kudin, V. N. Staroverov, T. Keith, R. Kobayashi, J. Normand, 
 K. Raghavachari, A. Rendell, J. C. Burant, S. S. Iyengar, J. Tomasi, 
 M. Cossi, N. Rega, J. M. Millam, M. Klene, J. E. Knox, J. B. Cross, 
 V. Bakken, C. Adamo, J. Jaramillo, R. Gomperts, R. E. Stratmann, 
 O. Yazyev, A. J. Austin, R. Cammi, C. Pomelli, J. W. Ochterski, 
 R. L. Martin, K. Morokuma, V. G. Zakrzewski, G. A. Voth, 
 P. Salvador, J. J. Dannenberg, S. Dapprich, A. D. Daniels, 
 O. Farkas, J. B. Foresman, J. V. Ortiz, J. Cioslowski, 
 and D. J. Fox, Gaussian, Inc., Wallingford CT, 2013.
 
 ******************************************
 Gaussian 09:  AS64L-G09RevD.01 24-Apr-2013
                 8-Feb-2018 
 ******************************************
 -------------------------------------------------
 # opt freq b3lyp/6-31(d) Integral(Grid=UltraFine)
 -------------------------------------------------
 1/14=-1,18=20,19=15,26=4,38=1/1,3;
 2/9=110,12=2,17=6,18=5,40=1/2;
 3/5=1,6=6,7=1,11=2,16=1,25=1,30=1,71=1,74=-5,75=-5/1,2,3;
 4//1;
 5/5=2,38=5/2;
 6/7=2,8=2,9=2,10=2,28=1/1;
 7//1,2,3,16;
 1/14=-1,18=20,19=15,26=4/3(2);
 2/9=110/2;
 99//99;
 2/9=110/2;
 3/5=1,6=6,7=1,11=2,16=1,25=1,30=1,71=1,74=-5,75=-5/1,2,3;
 4/5=5,16=3,69=1/1;
 5/5=2,38=5/2;
 7//1,2,3,16;
 1/14=-1,18=20,19=15,26=4/3(-5);
 2/9=110/2;
 6/7=2,8=2,9=2,10=2,19=2,28=1/1;
 99/9=1/99;
 -----
 Title
 -----
 Symbolic Z-matrix:
 Charge =  0 Multiplicity = 1
 P                     0.32775  -1.43794  -0.51817 
 P                     1.51328  -2.53517  -2.01464 
 P                     2.50085  -1.11049  -0.65678 
 P                     1.72222  -3.01654   0.12392 
 

 GradGradGradGradGradGradGradGradGradGradGradGradGradGradGradGradGradGrad
 Berny optimization.
 Initialization pass.
                           ----------------------------
                           !    Initial Parameters    !
                           ! (Angstroms and Degrees)  !
 --------------------------                            --------------------------
 ! Name  Definition              Value          Derivative Info.                !
 --------------------------------------------------------------------------------
 ! R1    R(1,2)                  2.202          estimate D2E/DX2                !
 ! R2    R(1,3)                  2.202          estimate D2E/DX2                !
 ! R3    R(1,4)                  2.202          estimate D2E/DX2                !
 ! R4    R(2,3)                  2.202          estimate D2E/DX2                !
 ! R5    R(2,4)                  2.202          estimate D2E/DX2                !
 ! R6    R(3,4)                  2.202          estimate D2E/DX2                !
 ! D1    D(2,1,3,4)            -70.5289         estimate D2E/DX2                !
 --------------------------------------------------------------------------------
 Trust Radius=3.00D-01 FncErr=1.00D-07 GrdErr=1.00D-06
 Number of steps in this run=     20 maximum allowed number of steps=    100.
 GradGradGradGradGradGradGradGradGradGradGradGradGradGradGradGradGradGrad

                          Input orientation:                          
 ---------------------------------------------------------------------
 Center     Atomic      Atomic             Coordinates (Angstroms)
 Number     Number       Type             X           Y           Z
 ---------------------------------------------------------------------
      1         15           0        0.327750   -1.437940   -0.518170
      2         15           0        1.513280   -2.535170   -2.014640
      3         15           0        2.500850   -1.110490   -0.656780
      4         15           0        1.722220   -3.016540    0.123920
 ---------------------------------------------------------------------
                    Distance matrix (angstroms):
                    1          2          3          4
     1  P    0.000000
     2  P    2.202003   0.000000
     3  P    2.201999   2.201997   0.000000
     4  P    2.202000   2.202002   2.201995   0.000000
 This structure is nearly, but not quite of a higher symmetry.
 Consider Symm=Loose if the higher symmetry is desired.
 Stoichiometry    P4
 Framework group  C1[X(P4)]
 Deg. of freedom     6
 Full point group                 C1      NOp   1
 Largest Abelian subgroup         C1      NOp   1
 Largest concise Abelian subgroup C1      NOp   1
                         Standard orientation:                         
 ---------------------------------------------------------------------
 Center     Atomic      Atomic             Coordinates (Angstroms)
 Number     Number       Type             X           Y           Z
 ---------------------------------------------------------------------
      1         15           0        0.020314    1.324852   -0.250320
      2         15           0        0.508090   -0.233437    1.227052
      3         15           0       -1.270735   -0.448015   -0.052999
      4         15           0        0.742330   -0.643399   -0.923733
 ---------------------------------------------------------------------
 Rotational constants (GHZ):      3.3650354      3.3650306      3.3650213
 Standard basis: 6-31G(d) (6D, 7F)
 There are    76 symmetry adapted cartesian basis functions of A   symmetry.
 There are    76 symmetry adapted basis functions of A   symmetry.
    76 basis functions,   208 primitive gaussians,    76 cartesian basis functions
    30 alpha electrons       30 beta electrons
       nuclear repulsion energy       324.4275303902 Hartrees.
 NAtoms=    4 NActive=    4 NUniq=    4 SFac= 1.00D+00 NAtFMM=   60 NAOKFM=F Big=F
 Integral buffers will be    131072 words long.
 Raffenetti 2 integral format.
 Two-electron integral symmetry is turned on.
 One-electron integrals computed using PRISM.
 NBasis=    76 RedAO= T EigKep=  9.81D-03  NBF=    76
 NBsUse=    76 1.00D-06 EigRej= -1.00D+00 NBFU=    76
 ExpMin= 9.98D-02 ExpMax= 1.94D+04 ExpMxC= 2.91D+03 IAcc=3 IRadAn=         5 AccDes= 0.00D+00
 Harris functional with IExCor=  402 and IRadAn=       5 diagonalized for initial guess.
 HarFok:  IExCor=  402 AccDes= 0.00D+00 IRadAn=         5 IDoV= 1 UseB2=F ITyADJ=14
 ICtDFT=  3500011 ScaDFX=  1.000000  1.000000  1.000000  1.000000
 FoFCou: FMM=F IPFlag=           0 FMFlag=      100000 FMFlg1=           0
         NFxFlg=           0 DoJE=T BraDBF=F KetDBF=T FulRan=T
         wScrn=  0.000000 ICntrl=     500 IOpCl=  0 I1Cent=   200000004 NGrid=           0
         NMat0=    1 NMatS0=      1 NMatT0=    0 NMatD0=    1 NMtDS0=    0 NMtDT0=    0
 Petite list used in FoFCou.
 Keep R1 ints in memory in canonical form, NReq=5219381.
 Requested convergence on RMS density matrix=1.00D-08 within 128 cycles.
 Requested convergence on MAX density matrix=1.00D-06.
 Requested convergence on             energy=1.00D-06.
 No special actions if energy rises.
 Integral accuracy reduced to 1.0D-05 until final iterations.
 Initial convergence to 1.0D-05 achieved.  Increase integral accuracy.
 SCF Done:  E(RB3LYP) =  -1365.44154122     A.U. after   11 cycles
            NFock= 11  Conv=0.21D-08     -V/T= 2.0032

 **********************************************************************

            Population analysis using the SCF density.

 **********************************************************************

 Orbital symmetries:
       Occupied  (A) (A) (A) (A) (A) (A) (A) (A) (A) (A) (A) (A)
                 (A) (A) (A) (A) (A) (A) (A) (A) (A) (A) (A) (A)
                 (A) (A) (A) (A) (A) (A)
       Virtual   (A) (A) (A) (A) (A) (A) (A) (A) (A) (A) (A) (A)
                 (A) (A) (A) (A) (A) (A) (A) (A) (A) (A) (A) (A)
                 (A) (A) (A) (A) (A) (A) (A) (A) (A) (A) (A) (A)
                 (A) (A) (A) (A) (A) (A) (A) (A) (A) (A)
 The electronic state is 1-A.
 Alpha  occ. eigenvalues --  -77.10654 -77.10654 -77.10654 -77.10652  -6.57995
 Alpha  occ. eigenvalues --   -6.57984  -6.57984  -6.57984  -4.74137  -4.74090
 Alpha  occ. eigenvalues --   -4.74090  -4.74090  -4.73959  -4.73959  -4.73955
 Alpha  occ. eigenvalues --   -4.73955  -4.73955  -4.73944  -4.73944  -4.73944
 Alpha  occ. eigenvalues --   -0.82171  -0.54835  -0.54835  -0.54834  -0.35218
 Alpha  occ. eigenvalues --   -0.30093  -0.30093  -0.30093  -0.27296  -0.27296
 Alpha virt. eigenvalues --   -0.03504  -0.03504  -0.03504  -0.02371  -0.02371
 Alpha virt. eigenvalues --   -0.02371   0.19014   0.23549   0.26230   0.26230
 Alpha virt. eigenvalues --    0.26230   0.26300   0.26300   0.31002   0.31002
 Alpha virt. eigenvalues --    0.31002   0.38725   0.38725   0.38725   0.43863
 Alpha virt. eigenvalues --    0.43863   0.43864   0.52780   0.52780   0.52781
 Alpha virt. eigenvalues --    0.54791   0.54791   0.71971   0.71971   0.71971
 Alpha virt. eigenvalues --    0.74054   0.74054   0.74054   0.77698   0.82003
 Alpha virt. eigenvalues --    0.82003   1.06667   1.06667   1.06667   1.08951
 Alpha virt. eigenvalues --    1.08951   1.08951   3.24867   3.42539   3.42539
 Alpha virt. eigenvalues --    3.42539
          Condensed to atoms (all electrons):
               1          2          3          4
     1  P   14.691655   0.102783   0.102781   0.102781
     2  P    0.102783  14.691655   0.102781   0.102782
     3  P    0.102781   0.102781  14.691658   0.102779
     4  P    0.102781   0.102782   0.102779  14.691658
 Mulliken charges:
               1
     1  P    0.000000
     2  P    0.000000
     3  P    0.000001
     4  P    0.000000
 Sum of Mulliken charges =   0.00000
 Mulliken charges with hydrogens summed into heavy atoms:
               1
     1  P    0.000000
     2  P    0.000000
     3  P    0.000001
     4  P    0.000000
 Electronic spatial extent (au):  <R**2>=            504.6802
 Charge=              0.0000 electrons
 Dipole moment (field-independent basis, Debye):
    X=              0.0000    Y=              0.0000    Z=              0.0000  Tot=              0.0000
 Quadrupole moment (field-independent basis, Debye-Ang):
   XX=            -51.5974   YY=            -51.5973   ZZ=            -51.5973
   XY=              0.0000   XZ=              0.0000   YZ=              0.0000
 Traceless Quadrupole moment (field-independent basis, Debye-Ang):
   XX=              0.0000   YY=              0.0000   ZZ=              0.0000
   XY=              0.0000   XZ=              0.0000   YZ=              0.0000
 Octapole moment (field-independent basis, Debye-Ang**2):
  XXX=              2.0413  YYY=             -2.6418  ZZZ=             -1.4090  XYY=             -0.1561
  XXY=              1.5363  XXZ=              0.3753  XZZ=             -1.8852  YZZ=              1.1055
  YYZ=              1.0337  XYZ=             -0.3494
 Hexadecapole moment (field-independent basis, Debye-Ang**3):
 XXXX=           -263.1314 YYYY=           -263.0670 ZZZZ=           -263.1281 XXXY=              0.1285
 XXXZ=             -0.0223 YYYX=             -0.0087 YYYZ=             -0.0712 ZZZX=              0.0726
 ZZZY=              0.0114 XXYY=            -87.7981 XXZZ=            -87.7371 YYZZ=            -87.8026
 XXYZ=              0.0600 YYXZ=             -0.0504 ZZXY=             -0.1197
 N-N= 3.244275303902D+02 E-N=-3.895668262520D+03  KE= 1.361056628860D+03
 Calling FoFJK, ICntrl=      2127 FMM=F ISym2X=0 I1Cent= 0 IOpClX= 0 NMat=1 NMatS=1 NMatT=0.
 ***** Axes restored to original set *****
 -------------------------------------------------------------------
 Center     Atomic                   Forces (Hartrees/Bohr)
 Number     Number              X              Y              Z
 -------------------------------------------------------------------
      1       15          -0.007111896    0.003511877    0.001484795
      2       15          -0.000016475   -0.003053820   -0.007470436
      3       15           0.005895203    0.005476356    0.000657104
      4       15           0.001233168   -0.005934413    0.005328537
 -------------------------------------------------------------------
 Cartesian Forces:  Max     0.007470436 RMS     0.004659734

 GradGradGradGradGradGradGradGradGradGradGradGradGradGradGradGradGradGrad
 Berny optimization.
 FormGI is forming the generalized inverse of G from B-inverse, IUseBI=4.
 Internal  Forces:  Max     0.003296178 RMS     0.003050512
 Search for a local minimum.
 Step number   1 out of a maximum of   20
 All quantities printed in internal units (Hartrees-Bohrs-Radians)
 Mixed Optimization -- RFO/linear search
 Second derivative matrix not updated -- first step.
 The second derivative matrix:
                          R1        R2        R3        R4        R5
           R1           0.18907
           R2           0.00000   0.18907
           R3           0.00000   0.00000   0.18907
           R4           0.00000   0.00000   0.00000   0.18908
           R5           0.00000   0.00000   0.00000   0.00000   0.18907
           R6           0.00000   0.00000   0.00000   0.00000   0.00000
           D1           0.00000   0.00000   0.00000   0.00000   0.00000
                          R6        D1
           R6           0.18908
           D1           0.00000   0.00230
 ITU=  0
     Eigenvalues ---    0.16063   0.18907   0.18907   0.18907   0.18908
     Eigenvalues ---    0.18908
 RFO step:  Lambda=-3.43891060D-04 EMin= 1.60626291D-01
 Linear search not attempted -- first point.
 Iteration  1 RMS(Cart)=  0.00805233 RMS(Int)=  0.00000000
 Iteration  2 RMS(Cart)=  0.00000000 RMS(Int)=  0.00000000
 Variable       Old X    -DE/DX   Delta X   Delta X   Delta X     New X
                                 (Linear)    (Quad)   (Total)
    R1        4.16118   0.00329   0.00000   0.01739   0.01739   4.17857
    R2        4.16118   0.00330   0.00000   0.01740   0.01740   4.17857
    R3        4.16118   0.00329   0.00000   0.01739   0.01739   4.17857
    R4        4.16117   0.00330   0.00000   0.01740   0.01740   4.17857
    R5        4.16118   0.00329   0.00000   0.01739   0.01739   4.17857
    R6        4.16117   0.00330   0.00000   0.01740   0.01740   4.17857
    D1       -1.23096   0.00000   0.00000   0.00000   0.00000  -1.23096
         Item               Value     Threshold  Converged?
 Maximum Force            0.003296     0.000450     NO 
 RMS     Force            0.003051     0.000300     NO 
 Maximum Displacement     0.009859     0.001800     NO 
 RMS     Displacement     0.008052     0.001200     NO 
 Predicted change in Energy=-1.722583D-04
 GradGradGradGradGradGradGradGradGradGradGradGradGradGradGradGradGradGrad

                          Input orientation:                          
 ---------------------------------------------------------------------
 Center     Atomic      Atomic             Coordinates (Angstroms)
 Number     Number       Type             X           Y           Z
 ---------------------------------------------------------------------
      1         15           0        0.322784   -1.435487   -0.517133
      2         15           0        1.513267   -2.537303   -2.019857
      3         15           0        2.504969   -1.106664   -0.656321
      4         15           0        1.723080   -3.020685    0.127641
 ---------------------------------------------------------------------
                    Distance matrix (angstroms):
                    1          2          3          4
     1  P    0.000000
     2  P    2.211205   0.000000
     3  P    2.211205   2.211206   0.000000
     4  P    2.211202   2.211205   2.211203   0.000000
 Stoichiometry    P4
 Framework group  C1[X(P4)]
 Deg. of freedom     6
 Full point group                 C1      NOp   1
 Largest Abelian subgroup         C1      NOp   1
 Largest concise Abelian subgroup C1      NOp   1
                         Standard orientation:                         
 ---------------------------------------------------------------------
 Center     Atomic      Atomic             Coordinates (Angstroms)
 Number     Number       Type             X           Y           Z
 ---------------------------------------------------------------------
      1         15           0       -0.508626    0.886961    0.887768
      2         15           0        1.346145    0.136312   -0.053391
      3         15           0       -0.311076   -1.258593    0.390781
      4         15           0       -0.526443    0.235320   -1.225159
 ---------------------------------------------------------------------
 Rotational constants (GHZ):      3.3370734      3.3370720      3.3370668
 Standard basis: 6-31G(d) (6D, 7F)
 There are    76 symmetry adapted cartesian basis functions of A   symmetry.
 There are    76 symmetry adapted basis functions of A   symmetry.
    76 basis functions,   208 primitive gaussians,    76 cartesian basis functions
    30 alpha electrons       30 beta electrons
       nuclear repulsion energy       323.0769672986 Hartrees.
 NAtoms=    4 NActive=    4 NUniq=    4 SFac= 1.00D+00 NAtFMM=   60 NAOKFM=F Big=F
 Integral buffers will be    131072 words long.
 Raffenetti 2 integral format.
 Two-electron integral symmetry is turned on.
 One-electron integrals computed using PRISM.
 NBasis=    76 RedAO= T EigKep=  9.93D-03  NBF=    76
 NBsUse=    76 1.00D-06 EigRej= -1.00D+00 NBFU=    76
 Initial guess from the checkpoint file:  "/tmp/Gau-1343.chk"
 B after Tr=     0.000000    0.000000    0.000000
         Rot=    0.750955   -0.274480   -0.505549   -0.324264 Ang= -82.65 deg.
 Keep R1 ints in memory in canonical form, NReq=5219381.
 Requested convergence on RMS density matrix=1.00D-08 within 128 cycles.
 Requested convergence on MAX density matrix=1.00D-06.
 Requested convergence on             energy=1.00D-06.
 No special actions if energy rises.
 SCF Done:  E(RB3LYP) =  -1365.44178211     A.U. after    8 cycles
            NFock=  8  Conv=0.14D-08     -V/T= 2.0033
 Calling FoFJK, ICntrl=      2127 FMM=F ISym2X=0 I1Cent= 0 IOpClX= 0 NMat=1 NMatS=1 NMatT=0.
 ***** Axes restored to original set *****
 -------------------------------------------------------------------
 Center     Atomic                   Forces (Hartrees/Bohr)
 Number     Number              X              Y              Z
 -------------------------------------------------------------------
      1       15          -0.002864154    0.001415538    0.000598392
      2       15          -0.000007251   -0.001229232   -0.003008000
      3       15           0.002373116    0.002204358    0.000263681
      4       15           0.000498289   -0.002390664    0.002145928
 -------------------------------------------------------------------
 Cartesian Forces:  Max     0.003008000 RMS     0.001876462

 GradGradGradGradGradGradGradGradGradGradGradGradGradGradGradGradGradGrad
 Berny optimization.
 Using GEDIIS/GDIIS optimizer.
 FormGI is forming the generalized inverse of G from B-inverse, IUseBI=4.
 Internal  Forces:  Max     0.001327979 RMS     0.001228433
 Search for a local minimum.
 Step number   2 out of a maximum of   20
 All quantities printed in internal units (Hartrees-Bohrs-Radians)
 Mixed Optimization -- RFO/linear search
 Update second derivatives using D2CorX and points    1    2
 DE= -2.41D-04 DEPred=-1.72D-04 R= 1.40D+00
 TightC=F SS=  1.41D+00  RLast= 4.26D-02 DXNew= 5.0454D-01 1.2783D-01
 Trust test= 1.40D+00 RLast= 4.26D-02 DXMaxT set to 3.00D-01
 The second derivative matrix:
                          R1        R2        R3        R4        R5
           R1           0.17642
           R2          -0.01265   0.17643
           R3          -0.01266  -0.01266   0.17640
           R4          -0.01265  -0.01265  -0.01266   0.17642
           R5          -0.01265  -0.01265  -0.01266  -0.01265   0.17642
           R6          -0.01265  -0.01265  -0.01267  -0.01265  -0.01265
           D1           0.00000   0.00000   0.00000   0.00000   0.00000
                          R6        D1
           R6           0.17642
           D1           0.00000   0.00230
 ITU=  1  0
 Use linear search instead of GDIIS.
     Eigenvalues ---    0.11314   0.16083   0.18907   0.18907   0.18907
     Eigenvalues ---    0.18908
 RFO step:  Lambda= 0.00000000D+00 EMin= 1.13139863D-01
 Quartic linear search produced a step of  0.68436.
 Iteration  1 RMS(Cart)=  0.00551071 RMS(Int)=  0.00000000
 Iteration  2 RMS(Cart)=  0.00000000 RMS(Int)=  0.00000000
 Variable       Old X    -DE/DX   Delta X   Delta X   Delta X     New X
                                 (Linear)    (Quad)   (Total)
    R1        4.17857   0.00133   0.01190   0.00000   0.01190   4.19047
    R2        4.17857   0.00133   0.01191  -0.00001   0.01190   4.19047
    R3        4.17857   0.00133   0.01190   0.00001   0.01191   4.19048
    R4        4.17857   0.00133   0.01191  -0.00001   0.01190   4.19048
    R5        4.17857   0.00133   0.01190   0.00000   0.01190   4.19047
    R6        4.17857   0.00133   0.01191   0.00000   0.01191   4.19047
    D1       -1.23096   0.00000   0.00000   0.00000   0.00000  -1.23096
         Item               Value     Threshold  Converged?
 Maximum Force            0.001328     0.000450     NO 
 RMS     Force            0.001228     0.000300     NO 
 Maximum Displacement     0.006745     0.001800     NO 
 RMS     Displacement     0.005511     0.001200     NO 
 Predicted change in Energy=-4.667198D-05
 GradGradGradGradGradGradGradGradGradGradGradGradGradGradGradGradGradGrad

                          Input orientation:                          
 ---------------------------------------------------------------------
 Center     Atomic      Atomic             Coordinates (Angstroms)
 Number     Number       Type             X           Y           Z
 ---------------------------------------------------------------------
      1         15           0        0.319384   -1.433805   -0.516425
      2         15           0        1.513258   -2.538763   -2.023426
      3         15           0        2.507784   -1.104048   -0.656007
      4         15           0        1.723673   -3.023524    0.130188
 ---------------------------------------------------------------------
                    Distance matrix (angstroms):
                    1          2          3          4
     1  P    0.000000
     2  P    2.217503   0.000000
     3  P    2.217503   2.217504   0.000000
     4  P    2.217507   2.217504   2.217503   0.000000
 Stoichiometry    P4
 Framework group  C1[X(P4)]
 Deg. of freedom     6
 Full point group                 C1      NOp   1
 Largest Abelian subgroup         C1      NOp   1
 Largest concise Abelian subgroup C1      NOp   1
                         Standard orientation:                         
 ---------------------------------------------------------------------
 Center     Atomic      Atomic             Coordinates (Angstroms)
 Number     Number       Type             X           Y           Z
 ---------------------------------------------------------------------
      1         15           0       -1.066292    0.021975   -0.840558
      2         15           0        0.045474    1.160363    0.703907
      3         15           0       -0.121489   -1.045468    0.858039
      4         15           0        1.142306   -0.136870   -0.721389
 ---------------------------------------------------------------------
 Rotational constants (GHZ):      3.3181421      3.3181378      3.3181325
 Standard basis: 6-31G(d) (6D, 7F)
 There are    76 symmetry adapted cartesian basis functions of A   symmetry.
 There are    76 symmetry adapted basis functions of A   symmetry.
    76 basis functions,   208 primitive gaussians,    76 cartesian basis functions
    30 alpha electrons       30 beta electrons
       nuclear repulsion energy       322.1591562333 Hartrees.
 NAtoms=    4 NActive=    4 NUniq=    4 SFac= 1.00D+00 NAtFMM=   60 NAOKFM=F Big=F
 Integral buffers will be    131072 words long.
 Raffenetti 2 integral format.
 Two-electron integral symmetry is turned on.
 One-electron integrals computed using PRISM.
 NBasis=    76 RedAO= T EigKep=  1.00D-02  NBF=    76
 NBsUse=    76 1.00D-06 EigRej= -1.00D+00 NBFU=    76
 Initial guess from the checkpoint file:  "/tmp/Gau-1343.chk"
 B after Tr=     0.000000    0.000000    0.000000
         Rot=    0.668936    0.246334    0.592064   -0.375905 Ang=  96.03 deg.
 Keep R1 ints in memory in canonical form, NReq=5219381.
 Requested convergence on RMS density matrix=1.00D-08 within 128 cycles.
 Requested convergence on MAX density matrix=1.00D-06.
 Requested convergence on             energy=1.00D-06.
 No special actions if energy rises.
 SCF Done:  E(RB3LYP) =  -1365.44182978     A.U. after    8 cycles
            NFock=  8  Conv=0.93D-09     -V/T= 2.0033
 Calling FoFJK, ICntrl=      2127 FMM=F ISym2X=0 I1Cent= 0 IOpClX= 0 NMat=1 NMatS=1 NMatT=0.
 ***** Axes restored to original set *****
 -------------------------------------------------------------------
 Center     Atomic                   Forces (Hartrees/Bohr)
 Number     Number              X              Y              Z
 -------------------------------------------------------------------
      1       15          -0.000051302    0.000025296    0.000010604
      2       15          -0.000000177   -0.000020753   -0.000053550
      3       15           0.000042759    0.000038781    0.000004192
      4       15           0.000008720   -0.000043324    0.000038754
 -------------------------------------------------------------------
 Cartesian Forces:  Max     0.000053550 RMS     0.000033525

 GradGradGradGradGradGradGradGradGradGradGradGradGradGradGradGradGradGrad
 Berny optimization.
 Using GEDIIS/GDIIS optimizer.
 FormGI is forming the generalized inverse of G from B-inverse, IUseBI=4.
 Internal  Forces:  Max     0.000024163 RMS     0.000021950
 Search for a local minimum.
 Step number   3 out of a maximum of   20
 All quantities printed in internal units (Hartrees-Bohrs-Radians)
 Mixed Optimization -- En-DIIS/RFO-DIIS
 Update second derivatives using D2CorX and points    1    2    3
 DE= -4.77D-05 DEPred=-4.67D-05 R= 1.02D+00
 TightC=F SS=  1.41D+00  RLast= 2.92D-02 DXNew= 5.0454D-01 8.7480D-02
 Trust test= 1.02D+00 RLast= 2.92D-02 DXMaxT set to 3.00D-01
 The second derivative matrix:
                          R1        R2        R3        R4        R5
           R1           0.17582
           R2          -0.01326   0.17580
           R3          -0.01327  -0.01328   0.17578
           R4          -0.01325  -0.01326  -0.01327   0.17584
           R5          -0.01326  -0.01327  -0.01328  -0.01326   0.17580
           R6          -0.01326  -0.01327  -0.01329  -0.01326  -0.01328
           D1           0.00001   0.00001   0.00001   0.00001   0.00001
                          R6        D1
           R6           0.17580
           D1           0.00001   0.00230
 ITU=  1  1  0
 Use linear search instead of GDIIS.
     Eigenvalues ---    0.10947   0.16096   0.18907   0.18907   0.18907
     Eigenvalues ---    0.18908
 RFO step:  Lambda= 0.00000000D+00 EMin= 1.09467576D-01
 Quartic linear search produced a step of  0.01888.
 Iteration  1 RMS(Cart)=  0.00010408 RMS(Int)=  0.00000000
 Iteration  2 RMS(Cart)=  0.00000000 RMS(Int)=  0.00000000
 Variable       Old X    -DE/DX   Delta X   Delta X   Delta X     New X
                                 (Linear)    (Quad)   (Total)
    R1        4.19047   0.00002   0.00022   0.00000   0.00022   4.19070
    R2        4.19047   0.00002   0.00022   0.00000   0.00023   4.19070
    R3        4.19048   0.00002   0.00022   0.00000   0.00023   4.19071
    R4        4.19048   0.00002   0.00022   0.00000   0.00022   4.19070
    R5        4.19047   0.00002   0.00022   0.00000   0.00023   4.19070
    R6        4.19047   0.00002   0.00022   0.00000   0.00023   4.19070
    D1       -1.23096   0.00000   0.00000   0.00000   0.00000  -1.23096
         Item               Value     Threshold  Converged?
 Maximum Force            0.000024     0.000450     YES
 RMS     Force            0.000022     0.000300     YES
 Maximum Displacement     0.000127     0.001800     YES
 RMS     Displacement     0.000104     0.001200     YES
 Predicted change in Energy=-1.537975D-08
 Optimization completed.
    -- Stationary point found.
                           ----------------------------
                           !   Optimized Parameters   !
                           ! (Angstroms and Degrees)  !
 --------------------------                            --------------------------
 ! Name  Definition              Value          Derivative Info.                !
 --------------------------------------------------------------------------------
 ! R1    R(1,2)                  2.2175         -DE/DX =    0.0                 !
 ! R2    R(1,3)                  2.2175         -DE/DX =    0.0                 !
 ! R3    R(1,4)                  2.2175         -DE/DX =    0.0                 !
 ! R4    R(2,3)                  2.2175         -DE/DX =    0.0                 !
 ! R5    R(2,4)                  2.2175         -DE/DX =    0.0                 !
 ! R6    R(3,4)                  2.2175         -DE/DX =    0.0                 !
 ! D1    D(2,1,3,4)            -70.5287         -DE/DX =    0.0                 !
 --------------------------------------------------------------------------------
 GradGradGradGradGradGradGradGradGradGradGradGradGradGradGradGradGradGrad

                          Input orientation:                          
 ---------------------------------------------------------------------
 Center     Atomic      Atomic             Coordinates (Angstroms)
 Number     Number       Type             X           Y           Z
 ---------------------------------------------------------------------
      1         15           0        0.319384   -1.433805   -0.516425
      2         15           0        1.513258   -2.538763   -2.023426
      3         15           0        2.507784   -1.104048   -0.656007
      4         15           0        1.723673   -3.023524    0.130188
 ---------------------------------------------------------------------
                    Distance matrix (angstroms):
                    1          2          3          4
     1  P    0.000000
     2  P    2.217503   0.000000
     3  P    2.217503   2.217504   0.000000
     4  P    2.217507   2.217504   2.217503   0.000000
 Stoichiometry    P4
 Framework group  C1[X(P4)]
 Deg. of freedom     6
 Full point group                 C1      NOp   1
 Largest Abelian subgroup         C1      NOp   1
 Largest concise Abelian subgroup C1      NOp   1
                         Standard orientation:                         
 ---------------------------------------------------------------------
 Center     Atomic      Atomic             Coordinates (Angstroms)
 Number     Number       Type             X           Y           Z
 ---------------------------------------------------------------------
      1         15           0       -1.066292    0.021975   -0.840558
      2         15           0        0.045474    1.160363    0.703907
      3         15           0       -0.121489   -1.045468    0.858039
      4         15           0        1.142306   -0.136870   -0.721389
 ---------------------------------------------------------------------
 Rotational constants (GHZ):      3.3181421      3.3181378      3.3181325

 **********************************************************************

            Population analysis using the SCF density.

 **********************************************************************

 Orbital symmetries:
       Occupied  (A) (A) (A) (A) (A) (A) (A) (A) (A) (A) (A) (A)
                 (A) (A) (A) (A) (A) (A) (A) (A) (A) (A) (A) (A)
                 (A) (A) (A) (A) (A) (A)
       Virtual   (A) (A) (A) (A) (A) (A) (A) (A) (A) (A) (A) (A)
                 (A) (A) (A) (A) (A) (A) (A) (A) (A) (A) (A) (A)
                 (A) (A) (A) (A) (A) (A) (A) (A) (A) (A) (A) (A)
                 (A) (A) (A) (A) (A) (A) (A) (A) (A) (A)
 The electronic state is 1-A.
 Alpha  occ. eigenvalues --  -77.10797 -77.10797 -77.10797 -77.10795  -6.58089
 Alpha  occ. eigenvalues --   -6.58079  -6.58079  -6.58079  -4.74229  -4.74187
 Alpha  occ. eigenvalues --   -4.74187  -4.74187  -4.74057  -4.74057  -4.74053
 Alpha  occ. eigenvalues --   -4.74053  -4.74053  -4.74044  -4.74044  -4.74044
 Alpha  occ. eigenvalues --   -0.81548  -0.54742  -0.54742  -0.54742  -0.35090
 Alpha  occ. eigenvalues --   -0.30067  -0.30067  -0.30067  -0.27210  -0.27210
 Alpha virt. eigenvalues --   -0.03761  -0.03761  -0.03761  -0.02557  -0.02557
 Alpha virt. eigenvalues --   -0.02557   0.19709   0.23541   0.26365   0.26365
 Alpha virt. eigenvalues --    0.26365   0.26499   0.26499   0.30728   0.30728
 Alpha virt. eigenvalues --    0.30728   0.38550   0.38550   0.38551   0.43972
 Alpha virt. eigenvalues --    0.43972   0.43972   0.52766   0.52766   0.52766
 Alpha virt. eigenvalues --    0.54645   0.54645   0.71590   0.71590   0.71590
 Alpha virt. eigenvalues --    0.73748   0.73748   0.73748   0.77444   0.81524
 Alpha virt. eigenvalues --    0.81524   1.05667   1.05667   1.05668   1.08530
 Alpha virt. eigenvalues --    1.08530   1.08530   3.25708   3.42201   3.42201
 Alpha virt. eigenvalues --    3.42202
          Condensed to atoms (all electrons):
               1          2          3          4
     1  P   14.692228   0.102591   0.102590   0.102592
     2  P    0.102591  14.692226   0.102592   0.102591
     3  P    0.102590   0.102592  14.692225   0.102591
     4  P    0.102592   0.102591   0.102591  14.692226
 Mulliken charges:
               1
     1  P   -0.000001
     2  P    0.000000
     3  P    0.000001
     4  P   -0.000001
 Sum of Mulliken charges =   0.00000
 Mulliken charges with hydrogens summed into heavy atoms:
               1
     1  P   -0.000001
     2  P    0.000000
     3  P    0.000001
     4  P   -0.000001
 Electronic spatial extent (au):  <R**2>=            510.3290
 Charge=              0.0000 electrons
 Dipole moment (field-independent basis, Debye):
    X=              0.0000    Y=              0.0000    Z=              0.0000  Tot=              0.0000
 Quadrupole moment (field-independent basis, Debye-Ang):
   XX=            -51.6615   YY=            -51.6615   ZZ=            -51.6615
   XY=              0.0000   XZ=              0.0000   YZ=              0.0000
 Traceless Quadrupole moment (field-independent basis, Debye-Ang):
   XX=              0.0000   YY=              0.0000   ZZ=              0.0000
   XY=              0.0000   XZ=              0.0000   YZ=              0.0000
 Octapole moment (field-independent basis, Debye-Ang**2):
  XXX=             -0.3493  YYY=             -0.5269  ZZZ=             -0.0141  XYY=              0.0640
  XXY=              0.2105  XXZ=              2.3785  XZZ=              0.2853  YZZ=              0.3164
  YYZ=             -2.3643  XYZ=             -0.3519
 Hexadecapole moment (field-independent basis, Debye-Ang**3):
 XXXX=           -266.0773 YYYY=           -266.0732 ZZZZ=           -266.4974 XXXY=             -0.0669
 XXXZ=             -0.0169 YYYX=              0.0606 YYYZ=              0.0354 ZZZX=              0.0420
 ZZZY=             -0.0636 XXYY=            -88.9717 XXZZ=            -88.5472 YYZZ=            -88.5507
 XXYZ=              0.0282 YYXZ=             -0.0251 ZZXY=              0.0064
 N-N= 3.221591562333D+02 E-N=-3.891050046214D+03  KE= 1.360980975057D+03
 1\1\GINC-C-0-2\FOpt\RB3LYP\6-31G(d)\P4\TY13946\08-Feb-2018\0\\# opt fr
 eq b3lyp/6-31(d) Integral(Grid=UltraFine)\\Title\\0,1\P,0.319384393,-1
 .4338054223,-0.5164245602\P,1.5132584348,-2.5387628551,-2.023426411\P,
 2.5077844902,-1.1040479025,-0.6560068917\P,1.723672682,-3.0235238201,0
 .1301878629\\Version=AS64L-G09RevD.01\State=1-A\HF=-1365.4418298\RMSD=
 9.280e-10\RMSF=3.353e-05\Dipole=0.0000026,0.0000003,-0.0000006\Quadrup
 ole=-0.0000055,0.0000133,-0.0000079,-0.0000071,0.0000162,0.000003\PG=C
 01 [X(P4)]\\@


 Time has a wonderful way of weeding out the trivial.
                                -- Richard Ben Sapir
 Job cpu time:       0 days  0 hours  0 minutes 45.2 seconds.
 File lengths (MBytes):  RWF=      5 Int=      0 D2E=      0 Chk=      1 Scr=      1
 Normal termination of Gaussian 09 at Thu Feb  8 15:27:49 2018.
 Link1:  Proceeding to internal job step number  2.
 --------------------------------------------------------------------
 #N Geom=AllCheck Guess=TCheck SCRF=Check GenChk RB3LYP/6-31G(d) Freq
 --------------------------------------------------------------------
 1/10=4,29=7,30=1,38=1,40=1/1,3;
 2/12=2,40=1/2;
 3/5=1,6=6,7=1,11=2,14=-4,16=1,25=1,30=1,70=2,71=2,74=-5,75=-5,116=1,140=1/1,2,3;
 4/5=101/1;
 5/5=2,98=1/2;
 8/6=4,10=90,11=11/1;
 11/6=1,8=1,9=11,15=111,16=1/1,2,10;
 10/6=1/2;
 6/7=2,8=2,9=2,10=2,18=1,28=1/1;
 7/8=1,10=1,25=1/1,2,3,16;
 1/10=4,30=1/3;
 99//99;
 Structure from the checkpoint file:  "/tmp/Gau-1343.chk"
 -----
 Title
 -----
 Charge =  0 Multiplicity = 1
 Redundant internal coordinates found in file.
 P,0,0.319384393,-1.4338054223,-0.5164245602
 P,0,1.5132584348,-2.5387628551,-2.023426411
 P,0,2.5077844902,-1.1040479025,-0.6560068917
 P,0,1.723672682,-3.0235238201,0.1301878629
 Recover connectivity data from disk.

 GradGradGradGradGradGradGradGradGradGradGradGradGradGradGradGradGradGrad
 Berny optimization.
 Initialization pass.
                           ----------------------------
                           !    Initial Parameters    !
                           ! (Angstroms and Degrees)  !
 --------------------------                            --------------------------
 ! Name  Definition              Value          Derivative Info.                !
 --------------------------------------------------------------------------------
 ! R1    R(1,2)                  2.2175         calculate D2E/DX2 analytically  !
 ! R2    R(1,3)                  2.2175         calculate D2E/DX2 analytically  !
 ! R3    R(1,4)                  2.2175         calculate D2E/DX2 analytically  !
 ! R4    R(2,3)                  2.2175         calculate D2E/DX2 analytically  !
 ! R5    R(2,4)                  2.2175         calculate D2E/DX2 analytically  !
 ! R6    R(3,4)                  2.2175         calculate D2E/DX2 analytically  !
 ! D1    D(2,1,3,4)            -70.5287         calculate D2E/DX2 analytically  !
 --------------------------------------------------------------------------------
 Trust Radius=3.00D-01 FncErr=1.00D-07 GrdErr=1.00D-07
 Number of steps in this run=      2 maximum allowed number of steps=      2.
 GradGradGradGradGradGradGradGradGradGradGradGradGradGradGradGradGradGrad

                          Input orientation:                          
 ---------------------------------------------------------------------
 Center     Atomic      Atomic             Coordinates (Angstroms)
 Number     Number       Type             X           Y           Z
 ---------------------------------------------------------------------
      1         15           0        0.319384   -1.433805   -0.516425
      2         15           0        1.513258   -2.538763   -2.023426
      3         15           0        2.507784   -1.104048   -0.656007
      4         15           0        1.723673   -3.023524    0.130188
 ---------------------------------------------------------------------
                    Distance matrix (angstroms):
                    1          2          3          4
     1  P    0.000000
     2  P    2.217503   0.000000
     3  P    2.217503   2.217504   0.000000
     4  P    2.217507   2.217504   2.217503   0.000000
 Stoichiometry    P4
 Framework group  C1[X(P4)]
 Deg. of freedom     6
 Full point group                 C1      NOp   1
 Largest Abelian subgroup         C1      NOp   1
 Largest concise Abelian subgroup C1      NOp   1
                         Standard orientation:                         
 ---------------------------------------------------------------------
 Center     Atomic      Atomic             Coordinates (Angstroms)
 Number     Number       Type             X           Y           Z
 ---------------------------------------------------------------------
      1         15           0       -1.066292    0.021975   -0.840558
      2         15           0        0.045474    1.160363    0.703907
      3         15           0       -0.121489   -1.045468    0.858039
      4         15           0        1.142306   -0.136870   -0.721389
 ---------------------------------------------------------------------
 Rotational constants (GHZ):      3.3181421      3.3181378      3.3181325
 Standard basis: 6-31G(d) (6D, 7F)
 There are    76 symmetry adapted cartesian basis functions of A   symmetry.
 There are    76 symmetry adapted basis functions of A   symmetry.
    76 basis functions,   208 primitive gaussians,    76 cartesian basis functions
    30 alpha electrons       30 beta electrons
       nuclear repulsion energy       322.1591562333 Hartrees.
 NAtoms=    4 NActive=    4 NUniq=    4 SFac= 1.00D+00 NAtFMM=   60 NAOKFM=F Big=F
 Integral buffers will be    131072 words long.
 Raffenetti 2 integral format.
 Two-electron integral symmetry is turned on.
 One-electron integrals computed using PRISM.
 NBasis=    76 RedAO= T EigKep=  1.00D-02  NBF=    76
 NBsUse=    76 1.00D-06 EigRej= -1.00D+00 NBFU=    76
 Initial guess from the checkpoint file:  "/tmp/Gau-1343.chk"
 B after Tr=     0.000000    0.000000    0.000000
         Rot=    1.000000    0.000000    0.000000    0.000000 Ang=   0.00 deg.
 Keep R1 ints in memory in canonical form, NReq=5219381.
 Requested convergence on RMS density matrix=1.00D-08 within 128 cycles.
 Requested convergence on MAX density matrix=1.00D-06.
 Requested convergence on             energy=1.00D-06.
 No special actions if energy rises.
 Skip diagonalization as Alpha Fock matrix is already diagonal.
 SCF Done:  E(RB3LYP) =  -1365.44182978     A.U. after    1 cycles
            NFock=  1  Conv=0.00D+00     -V/T= 2.0033
 DoSCS=F DFT=T ScalE2(SS,OS)=  1.000000  1.000000
 Range of M.O.s used for correlation:     1    76
 NBasis=    76 NAE=    30 NBE=    30 NFC=     0 NFV=     0
 NROrb=     76 NOA=    30 NOB=    30 NVA=    46 NVB=    46
 Symmetrizing basis deriv contribution to polar:
 IMax=3 JMax=2 DiffMx= 0.00D+00
 G2DrvN: will do     5 centers at a time, making    1 passes.
 Calling FoFCou, ICntrl=  3107 FMM=F I1Cent=   0 AccDes= 0.00D+00.
 End of G2Drv F.D. properties file   721 does not exist.
 End of G2Drv F.D. properties file   722 does not exist.
 End of G2Drv F.D. properties file   788 does not exist.
          IDoAtm=1111
          Differentiating once with respect to electric field.
                with respect to dipole field.
          Differentiating once with respect to nuclear coordinates.
 Keep R1 ints in memory in canonical form, NReq=5181068.
          There are    15 degrees of freedom in the 1st order CPHF.  IDoFFX=6 NUNeed=     3.
     12 vectors produced by pass  0 Test12= 9.20D-15 6.67D-09 XBig12= 1.60D+02 5.59D+00.
 AX will form    12 AO Fock derivatives at one time.
     12 vectors produced by pass  1 Test12= 9.20D-15 6.67D-09 XBig12= 5.47D+01 1.99D+00.
     12 vectors produced by pass  2 Test12= 9.20D-15 6.67D-09 XBig12= 1.97D+00 4.28D-01.
     12 vectors produced by pass  3 Test12= 9.20D-15 6.67D-09 XBig12= 2.07D-02 5.80D-02.
     12 vectors produced by pass  4 Test12= 9.20D-15 6.67D-09 XBig12= 9.13D-05 2.93D-03.
     12 vectors produced by pass  5 Test12= 9.20D-15 6.67D-09 XBig12= 5.52D-07 2.57D-04.
     10 vectors produced by pass  6 Test12= 9.20D-15 6.67D-09 XBig12= 1.48D-09 1.00D-05.
      3 vectors produced by pass  7 Test12= 9.20D-15 6.67D-09 XBig12= 1.83D-12 5.01D-07.
      3 vectors produced by pass  8 Test12= 9.20D-15 6.67D-09 XBig12= 1.83D-15 1.15D-08.
 InvSVY:  IOpt=1 It=  1 EMax= 1.11D-15
 Solved reduced A of dimension    88 with    12 vectors.
 Isotropic polarizability for W=    0.000000       81.10 Bohr**3.
 End of Minotr F.D. properties file   721 does not exist.
 End of Minotr F.D. properties file   722 does not exist.
 End of Minotr F.D. properties file   788 does not exist.

 **********************************************************************

            Population analysis using the SCF density.

 **********************************************************************

 Orbital symmetries:
       Occupied  (A) (A) (A) (A) (A) (A) (A) (A) (A) (A) (A) (A)
                 (A) (A) (A) (A) (A) (A) (A) (A) (A) (A) (A) (A)
                 (A) (A) (A) (A) (A) (A)
       Virtual   (A) (A) (A) (A) (A) (A) (A) (A) (A) (A) (A) (A)
                 (A) (A) (A) (A) (A) (A) (A) (A) (A) (A) (A) (A)
                 (A) (A) (A) (A) (A) (A) (A) (A) (A) (A) (A) (A)
                 (A) (A) (A) (A) (A) (A) (A) (A) (A) (A)
 The electronic state is 1-A.
 Alpha  occ. eigenvalues --  -77.10797 -77.10797 -77.10797 -77.10795  -6.58089
 Alpha  occ. eigenvalues --   -6.58079  -6.58079  -6.58079  -4.74229  -4.74187
 Alpha  occ. eigenvalues --   -4.74187  -4.74187  -4.74057  -4.74057  -4.74053
 Alpha  occ. eigenvalues --   -4.74053  -4.74053  -4.74044  -4.74044  -4.74044
 Alpha  occ. eigenvalues --   -0.81548  -0.54742  -0.54742  -0.54742  -0.35090
 Alpha  occ. eigenvalues --   -0.30067  -0.30067  -0.30067  -0.27210  -0.27210
 Alpha virt. eigenvalues --   -0.03761  -0.03761  -0.03761  -0.02557  -0.02557
 Alpha virt. eigenvalues --   -0.02557   0.19709   0.23541   0.26365   0.26365
 Alpha virt. eigenvalues --    0.26365   0.26499   0.26499   0.30728   0.30728
 Alpha virt. eigenvalues --    0.30728   0.38550   0.38550   0.38551   0.43972
 Alpha virt. eigenvalues --    0.43972   0.43972   0.52766   0.52766   0.52766
 Alpha virt. eigenvalues --    0.54645   0.54645   0.71590   0.71590   0.71590
 Alpha virt. eigenvalues --    0.73748   0.73748   0.73748   0.77444   0.81524
 Alpha virt. eigenvalues --    0.81524   1.05667   1.05667   1.05668   1.08530
 Alpha virt. eigenvalues --    1.08530   1.08530   3.25708   3.42201   3.42201
 Alpha virt. eigenvalues --    3.42202
          Condensed to atoms (all electrons):
               1          2          3          4
     1  P   14.692228   0.102591   0.102590   0.102592
     2  P    0.102591  14.692226   0.102592   0.102591
     3  P    0.102590   0.102592  14.692225   0.102591
     4  P    0.102592   0.102591   0.102591  14.692226
 Mulliken charges:
               1
     1  P   -0.000001
     2  P    0.000000
     3  P    0.000001
     4  P   -0.000001
 Sum of Mulliken charges =   0.00000
 Mulliken charges with hydrogens summed into heavy atoms:
               1
     1  P   -0.000001
     2  P    0.000000
     3  P    0.000001
     4  P   -0.000001
 APT charges:
               1
     1  P    0.000006
     2  P   -0.000015
     3  P    0.000019
     4  P   -0.000011
 Sum of APT charges =   0.00000
 APT charges with hydrogens summed into heavy atoms:
               1
     1  P    0.000006
     2  P   -0.000015
     3  P    0.000019
     4  P   -0.000011
 Electronic spatial extent (au):  <R**2>=            510.3290
 Charge=              0.0000 electrons
 Dipole moment (field-independent basis, Debye):
    X=              0.0000    Y=              0.0000    Z=              0.0000  Tot=              0.0000
 Quadrupole moment (field-independent basis, Debye-Ang):
   XX=            -51.6615   YY=            -51.6615   ZZ=            -51.6615
   XY=              0.0000   XZ=              0.0000   YZ=              0.0000
 Traceless Quadrupole moment (field-independent basis, Debye-Ang):
   XX=              0.0000   YY=              0.0000   ZZ=              0.0000
   XY=              0.0000   XZ=              0.0000   YZ=              0.0000
 Octapole moment (field-independent basis, Debye-Ang**2):
  XXX=             -0.3493  YYY=             -0.5269  ZZZ=             -0.0141  XYY=              0.0640
  XXY=              0.2105  XXZ=              2.3785  XZZ=              0.2853  YZZ=              0.3164
  YYZ=             -2.3643  XYZ=             -0.3519
 Hexadecapole moment (field-independent basis, Debye-Ang**3):
 XXXX=           -266.0773 YYYY=           -266.0732 ZZZZ=           -266.4974 XXXY=             -0.0669
 XXXZ=             -0.0169 YYYX=              0.0606 YYYZ=              0.0354 ZZZX=              0.0420
 ZZZY=             -0.0636 XXYY=            -88.9717 XXZZ=            -88.5472 YYZZ=            -88.5507
 XXYZ=              0.0282 YYXZ=             -0.0251 ZZXY=              0.0064
 N-N= 3.221591562333D+02 E-N=-3.891050046214D+03  KE= 1.360980975057D+03
  Exact polarizability:  81.096   0.000  81.095   0.000   0.000  81.096
 Approx polarizability: 183.027   0.000 183.026   0.000   0.000 183.026
 Calling FoFJK, ICntrl=    100127 FMM=F ISym2X=0 I1Cent= 0 IOpClX= 0 NMat=1 NMatS=1 NMatT=0.
 Full mass-weighted force constant matrix:
 Low frequencies ---   -5.1878   -4.7402   -4.0063   -0.0015    0.0023    0.0032
 Low frequencies ---  367.4225  367.4435  463.9143
 Diagonal vibrational polarizability:
        0.2155185       0.2155249       0.2157623
 Harmonic frequencies (cm**-1), IR intensities (KM/Mole), Raman scattering
 activities (A**4/AMU), depolarization ratios for plane and unpolarized
 incident light, reduced masses (AMU), force constants (mDyne/A),
 and normal coordinates:
                      1                      2                      3
                      A                      A                      A
 Frequencies --    367.4225               367.4435               463.9143
 Red. masses --     30.9738                30.9738                30.9738
 Frc consts  --      2.4636                 2.4639                 3.9275
 IR Inten    --      0.0000                 0.0000                 1.7238
  Atom  AN      X      Y      Z        X      Y      Z        X      Y      Z
     1  15    -0.26   0.25   0.34     0.16   0.43  -0.20    -0.20  -0.27  -0.32
     2  15    -0.17   0.25  -0.40    -0.47  -0.08   0.15     0.24   0.31   0.37
     3  15     0.21  -0.30  -0.34     0.45   0.10   0.19     0.27   0.18  -0.38
     4  15     0.23  -0.20   0.40    -0.15  -0.46  -0.15    -0.30  -0.22   0.33
                      4                      5                      6
                      A                      A                      A
 Frequencies --    463.9388               463.9710               607.0182
 Red. masses --     30.9738                30.9738                30.9738
 Frc consts  --      3.9279                 3.9285                 6.7243
 IR Inten    --      1.7256                 1.7239                 0.0000
  Atom  AN      X      Y      Z        X      Y      Z        X      Y      Z
     1  15     0.44   0.04  -0.06    -0.35   0.22  -0.40     0.39  -0.01   0.31
     2  15     0.09   0.39  -0.14     0.25  -0.39  -0.27    -0.02  -0.43  -0.26
     3  15     0.00  -0.55   0.15     0.24  -0.09   0.33     0.04   0.38  -0.32
     4  15    -0.53   0.12   0.04    -0.13   0.26   0.35    -0.42   0.05   0.27

 -------------------
 - Thermochemistry -
 -------------------
 Temperature   298.150 Kelvin.  Pressure   1.00000 Atm.
 Atom     1 has atomic number 15 and mass  30.97376
 Atom     2 has atomic number 15 and mass  30.97376
 Atom     3 has atomic number 15 and mass  30.97376
 Atom     4 has atomic number 15 and mass  30.97376
 Molecular mass:   123.89505 amu.
 Principal axes and moments of inertia in atomic units:
                           1         2         3
     Eigenvalues --   543.90111 543.90182 543.90269
           X            1.00000   0.00000   0.00000
           Y            0.00000   1.00000   0.00000
           Z            0.00000   0.00000   1.00000
 This molecule is an asymmetric top.
 Rotational symmetry number  1.
 Warning -- assumption of classical behavior for rotation
           may cause significant error
 Rotational temperatures (Kelvin)      0.15925     0.15925     0.15925
 Rotational constants (GHZ):           3.31814     3.31814     3.31813
 Zero-point vibrational energy      16351.2 (Joules/Mol)
                                    3.90803 (Kcal/Mol)
 Warning -- explicit consideration of   6 degrees of freedom as
           vibrations may cause significant error
 Vibrational temperatures:    528.64   528.67   667.47   667.50   667.55
          (Kelvin)            873.36
 
 Zero-point correction=                           0.006228 (Hartree/Particle)
 Thermal correction to Energy=                    0.010658
 Thermal correction to Enthalpy=                  0.011602
 Thermal correction to Gibbs Free Energy=        -0.022521
 Sum of electronic and zero-point Energies=          -1365.435602
 Sum of electronic and thermal Energies=             -1365.431172
 Sum of electronic and thermal Enthalpies=           -1365.430228
 Sum of electronic and thermal Free Energies=        -1365.464351
 
                     E (Thermal)             CV                S
                      KCal/Mol        Cal/Mol-Kelvin    Cal/Mol-Kelvin
 Total                    6.688             14.047             71.818
 Electronic               0.000              0.000              0.000
 Translational            0.889              2.981             40.357
 Rotational               0.889              2.981             26.578
 Vibrational              4.910              8.086              4.883
 Vibration     1          0.740              1.539              1.091
 Vibration     2          0.740              1.539              1.090
 Vibration     3          0.821              1.330              0.755
 Vibration     4          0.821              1.330              0.755
 Vibration     5          0.822              1.330              0.755
 Vibration     6          0.966              1.017              0.438
                       Q            Log10(Q)             Ln(Q)
 Total Bot       0.228499D+11         10.358885         23.852214
 Total V=0       0.167297D+14         13.223489         30.448209
 Vib (Bot)       0.293577D-02         -2.532278         -5.830786
 Vib (Bot)    1  0.496373D+00         -0.304192         -0.700427
 Vib (Bot)    2  0.496338D+00         -0.304223         -0.700499
 Vib (Bot)    3  0.365448D+00         -0.437175         -1.006632
 Vib (Bot)    4  0.365421D+00         -0.437207         -1.006706
 Vib (Bot)    5  0.365386D+00         -0.437249         -1.006802
 Vib (Bot)    6  0.244212D+00         -0.612234         -1.409720
 Vib (V=0)       0.214944D+01          0.332326          0.765208
 Vib (V=0)    1  0.120455D+01          0.080824          0.186103
 Vib (V=0)    2  0.120452D+01          0.080815          0.186083
 Vib (V=0)    3  0.111932D+01          0.048953          0.112718
 Vib (V=0)    4  0.111930D+01          0.048946          0.112703
 Vib (V=0)    5  0.111928D+01          0.048938          0.112685
 Vib (V=0)    6  0.105645D+01          0.023850          0.054917
 Electronic      0.100000D+01          0.000000          0.000000
 Translational   0.542046D+08          7.734036         17.808276
 Rotational      0.143591D+06          5.157127         11.874724
 ***** Axes restored to original set *****
 -------------------------------------------------------------------
 Center     Atomic                   Forces (Hartrees/Bohr)
 Number     Number              X              Y              Z
 -------------------------------------------------------------------
      1       15          -0.000051303    0.000025297    0.000010604
      2       15          -0.000000177   -0.000020753   -0.000053550
      3       15           0.000042759    0.000038781    0.000004192
      4       15           0.000008720   -0.000043324    0.000038754
 -------------------------------------------------------------------
 Cartesian Forces:  Max     0.000053550 RMS     0.000033525
 FormGI is forming the generalized inverse of G from B-inverse, IUseBI=4.

 GradGradGradGradGradGradGradGradGradGradGradGradGradGradGradGradGradGrad
 Berny optimization.
 Internal  Forces:  Max     0.000024163 RMS     0.000021950
 Search for a local minimum.
 Step number   1 out of a maximum of    2
 All quantities printed in internal units (Hartrees-Bohrs-Radians)
 Second derivative matrix not updated -- analytic derivatives used.
 The second derivative matrix:
                          R1        R2        R3        R4        R5
           R1           0.13064
           R2          -0.00488   0.12999
           R3          -0.01153  -0.00488   0.13067
           R4          -0.01154  -0.00488   0.00452   0.13068
           R5           0.00073  -0.00248   0.00073   0.00074   0.10753
           R6           0.00452  -0.00489  -0.01153  -0.01154   0.00074
           D1           0.01291  -0.01598   0.01291   0.01291  -0.03568
                          R6        D1
           R6           0.13069
           D1           0.01292   0.01965
 ITU=  0
     Eigenvalues ---    0.10798   0.12030   0.12614   0.12615   0.14101
     Eigenvalues ---    0.15826
 Angle between quadratic step and forces=   0.24 degrees.
 Linear search not attempted -- first point.
 Iteration  1 RMS(Cart)=  0.00010166 RMS(Int)=  0.00000000
 Iteration  2 RMS(Cart)=  0.00000000 RMS(Int)=  0.00000000
 Variable       Old X    -DE/DX   Delta X   Delta X   Delta X     New X
                                 (Linear)    (Quad)   (Total)
    R1        4.19047   0.00002   0.00000   0.00022   0.00022   4.19069
    R2        4.19047   0.00002   0.00000   0.00022   0.00022   4.19070
    R3        4.19048   0.00002   0.00000   0.00022   0.00022   4.19070
    R4        4.19048   0.00002   0.00000   0.00021   0.00021   4.19069
    R5        4.19047   0.00002   0.00000   0.00022   0.00022   4.19070
    R6        4.19047   0.00002   0.00000   0.00022   0.00022   4.19070
    D1       -1.23096   0.00000   0.00000   0.00000   0.00000  -1.23096
         Item               Value     Threshold  Converged?
 Maximum Force            0.000024     0.000450     YES
 RMS     Force            0.000022     0.000300     YES
 Maximum Displacement     0.000124     0.001800     YES
 RMS     Displacement     0.000102     0.001200     YES
 Predicted change in Energy=-1.561622D-08
 Optimization completed.
    -- Stationary point found.
                           ----------------------------
                           !   Optimized Parameters   !
                           ! (Angstroms and Degrees)  !
 --------------------------                            --------------------------
 ! Name  Definition              Value          Derivative Info.                !
 --------------------------------------------------------------------------------
 ! R1    R(1,2)                  2.2175         -DE/DX =    0.0                 !
 ! R2    R(1,3)                  2.2175         -DE/DX =    0.0                 !
 ! R3    R(1,4)                  2.2175         -DE/DX =    0.0                 !
 ! R4    R(2,3)                  2.2175         -DE/DX =    0.0                 !
 ! R5    R(2,4)                  2.2175         -DE/DX =    0.0                 !
 ! R6    R(3,4)                  2.2175         -DE/DX =    0.0                 !
 ! D1    D(2,1,3,4)            -70.5287         -DE/DX =    0.0                 !
 --------------------------------------------------------------------------------
 GradGradGradGradGradGradGradGradGradGradGradGradGradGradGradGradGradGrad

 1\1\GINC-C-0-2\Freq\RB3LYP\6-31G(d)\P4\TY13946\08-Feb-2018\0\\#N Geom=
 AllCheck Guess=TCheck SCRF=Check GenChk RB3LYP/6-31G(d) Freq\\Title\\0
 ,1\P,0.319384393,-1.4338054223,-0.5164245602\P,1.5132584348,-2.5387628
 551,-2.023426411\P,2.5077844902,-1.1040479025,-0.6560068917\P,1.723672
 682,-3.0235238201,0.1301878629\\Version=AS64L-G09RevD.01\State=1-A\HF=
 -1365.4418298\RMSD=0.000e+00\RMSF=3.353e-05\ZeroPoint=0.0062278\Therma
 l=0.0106579\Dipole=0.0000026,0.0000003,-0.0000006\DipoleDeriv=-0.11003
 09,0.0952151,0.0402996,0.0952345,0.0357114,-0.0199394,0.0402516,-0.019
 9292,0.0743376,0.0827384,-0.0002069,-0.0005019,-0.0001622,0.0472141,-0
 .0869811,-0.0004476,-0.0869171,-0.1299964,-0.0496578,-0.1229611,-0.014
 7055,-0.1229633,-0.0314443,-0.0136508,-0.0147567,-0.0136688,0.0811603,
 0.0769502,0.0279529,-0.0250922,0.0278909,-0.0514811,0.1205712,-0.02504
 72,0.120515,-0.0255014\Polar=81.0954881,-0.0000296,81.0954868,-0.00046
 86,-0.0003834,81.0957196\PG=C01 [X(P4)]\NImag=0\\0.19769782,-0.0625438
 0,0.10198505,-0.02643273,0.01305638,0.07660013,-0.03523279,0.03325442,
 0.05404073,0.07108044,0.02449344,-0.03497775,-0.04139356,0.00013279,0.
 09440800,0.03265376,-0.03265563,-0.05518106,0.00032836,0.05707610,0.21
 079060,-0.11376550,-0.02887110,0.00383025,-0.02697417,-0.02673662,-0.0
 2458009,0.15806140,-0.00487396,-0.00361717,0.00146679,-0.03394179,-0.0
 5302606,-0.03693106,0.08075881,0.14609378,0.00923182,0.00381050,-0.008
 06890,-0.04229223,-0.05257692,-0.04544034,0.00967768,0.00898910,0.0721
 7539,-0.04869953,0.05816049,-0.03143825,-0.00887349,0.00211039,-0.0084
 0204,-0.01732173,-0.04194307,0.02338272,0.07489474,0.04292431,-0.06339
 013,0.02687039,0.00055458,-0.00640419,0.01251059,-0.02515109,-0.089450
 55,0.03977732,-0.01832781,0.15924487,-0.01545285,0.01578875,-0.0133501
 7,-0.01207687,0.03689438,-0.11016920,0.01107216,0.02647517,-0.01866615
 ,0.01645756,-0.07915830,0.14218552\\0.00005130,-0.00002530,-0.00001060
 ,0.00000018,0.00002075,0.00005355,-0.00004276,-0.00003878,-0.00000419,
 -0.00000872,0.00004332,-0.00003875\\\@


 Everywhere is walking distance if you have the time.
                                    -- Steven Wright
 Job cpu time:       0 days  0 hours  1 minutes  8.7 seconds.
 File lengths (MBytes):  RWF=      8 Int=      0 D2E=      0 Chk=      2 Scr=      1
 Normal termination of Gaussian 09 at Thu Feb  8 15:28:59 2018.
