 Entering Gaussian System, Link 0=g09
 Input=SO2.gjf
 Output=SO2.log
 Initial command:
 /share/apps/g09/l1.exe "/tmp/Gau-24308.inp" -scrdir="/tmp/"
 Entering Link 1 = /share/apps/g09/l1.exe PID=     24310.
  
 Copyright (c) 1988,1990,1992,1993,1995,1998,2003,2009,2013,
            Gaussian, Inc.  All Rights Reserved.
  
 This is part of the Gaussian(R) 09 program.  It is based on
 the Gaussian(R) 03 system (copyright 2003, Gaussian, Inc.),
 the Gaussian(R) 98 system (copyright 1998, Gaussian, Inc.),
 the Gaussian(R) 94 system (copyright 1995, Gaussian, Inc.),
 the Gaussian 92(TM) system (copyright 1992, Gaussian, Inc.),
 the Gaussian 90(TM) system (copyright 1990, Gaussian, Inc.),
 the Gaussian 88(TM) system (copyright 1988, Gaussian, Inc.),
 the Gaussian 86(TM) system (copyright 1986, Carnegie Mellon
 University), and the Gaussian 82(TM) system (copyright 1983,
 Carnegie Mellon University). Gaussian is a federally registered
 trademark of Gaussian, Inc.
  
 This software contains proprietary and confidential information,
 including trade secrets, belonging to Gaussian, Inc.
  
 This software is provided under written license and may be
 used, copied, transmitted, or stored only in accord with that
 written license.
  
 The following legend is applicable only to US Government
 contracts under FAR:
  
                    RESTRICTED RIGHTS LEGEND
  
 Use, reproduction and disclosure by the US Government is
 subject to restrictions as set forth in subparagraphs (a)
 and (c) of the Commercial Computer Software - Restricted
 Rights clause in FAR 52.227-19.
  
 Gaussian, Inc.
 340 Quinnipiac St., Bldg. 40, Wallingford CT 06492
  
  
 ---------------------------------------------------------------
 Warning -- This program may not be used in any manner that
 competes with the business of Gaussian, Inc. or will provide
 assistance to any competitor of Gaussian, Inc.  The licensee
 of this program is prohibited from giving any competitor of
 Gaussian, Inc. access to this program.  By using this program,
 the user acknowledges that Gaussian, Inc. is engaged in the
 business of creating and licensing software in the field of
 computational chemistry and represents and warrants to the
 licensee that it is not a competitor of Gaussian, Inc. and that
 it will not use this program in any manner prohibited above.
 ---------------------------------------------------------------
  

 Cite this work as:
 Gaussian 09, Revision D.01,
 M. J. Frisch, G. W. Trucks, H. B. Schlegel, G. E. Scuseria, 
 M. A. Robb, J. R. Cheeseman, G. Scalmani, V. Barone, B. Mennucci, 
 G. A. Petersson, H. Nakatsuji, M. Caricato, X. Li, H. P. Hratchian, 
 A. F. Izmaylov, J. Bloino, G. Zheng, J. L. Sonnenberg, M. Hada, 
 M. Ehara, K. Toyota, R. Fukuda, J. Hasegawa, M. Ishida, T. Nakajima, 
 Y. Honda, O. Kitao, H. Nakai, T. Vreven, J. A. Montgomery, Jr., 
 J. E. Peralta, F. Ogliaro, M. Bearpark, J. J. Heyd, E. Brothers, 
 K. N. Kudin, V. N. Staroverov, T. Keith, R. Kobayashi, J. Normand, 
 K. Raghavachari, A. Rendell, J. C. Burant, S. S. Iyengar, J. Tomasi, 
 M. Cossi, N. Rega, J. M. Millam, M. Klene, J. E. Knox, J. B. Cross, 
 V. Bakken, C. Adamo, J. Jaramillo, R. Gomperts, R. E. Stratmann, 
 O. Yazyev, A. J. Austin, R. Cammi, C. Pomelli, J. W. Ochterski, 
 R. L. Martin, K. Morokuma, V. G. Zakrzewski, G. A. Voth, 
 P. Salvador, J. J. Dannenberg, S. Dapprich, A. D. Daniels, 
 O. Farkas, J. B. Foresman, J. V. Ortiz, J. Cioslowski, 
 and D. J. Fox, Gaussian, Inc., Wallingford CT, 2013.
 
 ******************************************
 Gaussian 09:  AS64L-G09RevD.01 24-Apr-2013
                 6-Feb-2018 
 ******************************************
 -------------------------------------------------
 # opt freq b3lyp/6-31(d) Integral(Grid=UltraFine)
 -------------------------------------------------
 1/14=-1,18=20,19=15,26=4,38=1/1,3;
 2/9=110,12=2,17=6,18=5,40=1/2;
 3/5=1,6=6,7=1,11=2,16=1,25=1,30=1,71=1,74=-5,75=-5/1,2,3;
 4//1;
 5/5=2,38=5/2;
 6/7=2,8=2,9=2,10=2,28=1/1;
 7//1,2,3,16;
 1/14=-1,18=20,19=15,26=4/3(2);
 2/9=110/2;
 99//99;
 2/9=110/2;
 3/5=1,6=6,7=1,11=2,16=1,25=1,30=1,71=1,74=-5,75=-5/1,2,3;
 4/5=5,16=3,69=1/1;
 5/5=2,38=5/2;
 7//1,2,3,16;
 1/14=-1,18=20,19=15,26=4/3(-5);
 2/9=110/2;
 6/7=2,8=2,9=2,10=2,19=2,28=1/1;
 99/9=1/99;
 -----
 Title
 -----
 Symbolic Z-matrix:
 Charge =  0 Multiplicity = 1
 S                     0.08231  -2.26777  -1.21859 
 O                     1.20938  -2.57745  -1.45973 
 O                    -0.38186  -1.8375   -2.23126 
 

 GradGradGradGradGradGradGradGradGradGradGradGradGradGradGradGradGradGrad
 Berny optimization.
 Initialization pass.
                           ----------------------------
                           !    Initial Parameters    !
                           ! (Angstroms and Degrees)  !
 --------------------------                            --------------------------
 ! Name  Definition              Value          Derivative Info.                !
 --------------------------------------------------------------------------------
 ! R1    R(1,2)                  1.1935         estimate D2E/DX2                !
 ! R2    R(1,3)                  1.1942         estimate D2E/DX2                !
 ! A1    A(2,1,3)              106.8114         estimate D2E/DX2                !
 --------------------------------------------------------------------------------
 Trust Radius=3.00D-01 FncErr=1.00D-07 GrdErr=1.00D-06
 Number of steps in this run=     20 maximum allowed number of steps=    100.
 GradGradGradGradGradGradGradGradGradGradGradGradGradGradGradGradGradGrad

                          Input orientation:                          
 ---------------------------------------------------------------------
 Center     Atomic      Atomic             Coordinates (Angstroms)
 Number     Number       Type             X           Y           Z
 ---------------------------------------------------------------------
      1         16           0        0.082310   -2.267770   -1.218590
      2          8           0        1.209380   -2.577450   -1.459730
      3          8           0       -0.381860   -1.837500   -2.231260
 ---------------------------------------------------------------------
                    Distance matrix (angstroms):
                    1          2          3
     1  S    0.000000
     2  O    1.193456   0.000000
     3  O    1.194189   1.916984   0.000000
 Stoichiometry    O2S
 Framework group  CS[SG(O2S)]
 Deg. of freedom     3
 Full point group                 CS      NOp   2
 Largest Abelian subgroup         CS      NOp   2
 Largest concise Abelian subgroup C1      NOp   1
                         Standard orientation:                         
 ---------------------------------------------------------------------
 Center     Atomic      Atomic             Coordinates (Angstroms)
 Number     Number       Type             X           Y           Z
 ---------------------------------------------------------------------
      1         16           0        0.000000    0.355846    0.000000
      2          8           0        0.958492   -0.355231    0.000000
      3          8           0       -0.958492   -0.356460    0.000000
 ---------------------------------------------------------------------
 Rotational constants (GHZ):     62.3983093     17.1960235     13.4808943
 Standard basis: 6-31G(d) (6D, 7F)
 There are    36 symmetry adapted cartesian basis functions of A'  symmetry.
 There are    13 symmetry adapted cartesian basis functions of A"  symmetry.
 There are    36 symmetry adapted basis functions of A'  symmetry.
 There are    13 symmetry adapted basis functions of A"  symmetry.
    49 basis functions,   108 primitive gaussians,    49 cartesian basis functions
    16 alpha electrons       16 beta electrons
       nuclear repulsion energy       131.1423183673 Hartrees.
 NAtoms=    3 NActive=    3 NUniq=    3 SFac= 1.00D+00 NAtFMM=   60 NAOKFM=F Big=F
 Integral buffers will be    131072 words long.
 Raffenetti 2 integral format.
 Two-electron integral symmetry is turned on.
 One-electron integrals computed using PRISM.
 NBasis=    49 RedAO= T EigKep=  1.24D-02  NBF=    36    13
 NBsUse=    49 1.00D-06 EigRej= -1.00D+00 NBFU=    36    13
 ExpMin= 1.17D-01 ExpMax= 2.19D+04 ExpMxC= 3.30D+03 IAcc=3 IRadAn=         5 AccDes= 0.00D+00
 Harris functional with IExCor=  402 and IRadAn=       5 diagonalized for initial guess.
 HarFok:  IExCor=  402 AccDes= 0.00D+00 IRadAn=         5 IDoV= 1 UseB2=F ITyADJ=14
 ICtDFT=  3500011 ScaDFX=  1.000000  1.000000  1.000000  1.000000
 FoFCou: FMM=F IPFlag=           0 FMFlag=      100000 FMFlg1=           0
         NFxFlg=           0 DoJE=T BraDBF=F KetDBF=T FulRan=T
         wScrn=  0.000000 ICntrl=     500 IOpCl=  0 I1Cent=   200000004 NGrid=           0
         NMat0=    1 NMatS0=      1 NMatT0=    0 NMatD0=    1 NMtDS0=    0 NMtDT0=    0
 Petite list used in FoFCou.
 Initial guess orbital symmetries:
       Occupied  (A') (A') (A') (A') (A') (A') (A") (A') (A') (A')
                 (A") (A') (A') (A") (A') (A')
       Virtual   (A") (A') (A') (A') (A") (A') (A') (A') (A') (A")
                 (A") (A') (A") (A') (A") (A') (A') (A') (A') (A')
                 (A") (A") (A') (A') (A") (A') (A") (A') (A') (A')
                 (A') (A') (A')
 The electronic state of the initial guess is 1-A'.
 Keep R1 ints in memory in symmetry-blocked form, NReq=1651738.
 Requested convergence on RMS density matrix=1.00D-08 within 128 cycles.
 Requested convergence on MAX density matrix=1.00D-06.
 Requested convergence on             energy=1.00D-06.
 No special actions if energy rises.
 Integral accuracy reduced to 1.0D-05 until final iterations.
 Initial convergence to 1.0D-05 achieved.  Increase integral accuracy.
 SCF Done:  E(RB3LYP) =  -548.250960470     A.U. after   13 cycles
            NFock= 13  Conv=0.24D-08     -V/T= 1.9983

 **********************************************************************

            Population analysis using the SCF density.

 **********************************************************************

 Orbital symmetries:
       Occupied  (A') (A') (A') (A') (A') (A") (A') (A') (A') (A')
                 (A") (A') (A') (A") (A') (A')
       Virtual   (A") (A') (A') (A') (A") (A') (A') (A') (A") (A')
                 (A") (A') (A") (A') (A") (A') (A') (A') (A') (A')
                 (A") (A") (A') (A') (A") (A") (A') (A') (A') (A')
                 (A') (A') (A')
 The electronic state is 1-A'.
 Alpha  occ. eigenvalues --  -89.01437 -19.15364 -19.15354  -8.08996  -6.05386
 Alpha  occ. eigenvalues --   -6.04865  -6.04498  -1.30325  -1.12955  -0.60775
 Alpha  occ. eigenvalues --   -0.58362  -0.53801  -0.48622  -0.40465  -0.35043
 Alpha  occ. eigenvalues --   -0.33618
 Alpha virt. eigenvalues --   -0.04723   0.11227   0.12085   0.26282   0.27958
 Alpha virt. eigenvalues --    0.48687   0.51345   0.73344   0.74873   0.75421
 Alpha virt. eigenvalues --    0.79369   0.85490   0.89779   0.90199   0.96120
 Alpha virt. eigenvalues --    1.06285   1.19290   1.23270   1.41176   1.67333
 Alpha virt. eigenvalues --    1.70619   1.80118   1.82457   1.98599   2.22847
 Alpha virt. eigenvalues --    2.27695   2.30091   2.48777   2.78445   2.87438
 Alpha virt. eigenvalues --    3.69881   3.72756   3.89922
          Condensed to atoms (all electrons):
               1          2          3
     1  S   14.494342   0.465709   0.465349
     2  O    0.465709   8.006965  -0.185659
     3  O    0.465349  -0.185659   8.007895
 Mulliken charges:
               1
     1  S    0.574600
     2  O   -0.287015
     3  O   -0.287585
 Sum of Mulliken charges =   0.00000
 Mulliken charges with hydrogens summed into heavy atoms:
               1
     1  S    0.574600
     2  O   -0.287015
     3  O   -0.287585
 Electronic spatial extent (au):  <R**2>=            116.0229
 Charge=              0.0000 electrons
 Dipole moment (field-independent basis, Debye):
    X=              0.0030    Y=              1.4947    Z=              0.0000  Tot=              1.4947
 Quadrupole moment (field-independent basis, Debye-Ang):
   XX=            -24.7219   YY=            -21.9219   ZZ=            -19.3444
   XY=             -0.0021   XZ=              0.0000   YZ=              0.0000
 Traceless Quadrupole moment (field-independent basis, Debye-Ang):
   XX=             -2.7258   YY=              0.0742   ZZ=              2.6516
   XY=             -0.0021   XZ=              0.0000   YZ=              0.0000
 Octapole moment (field-independent basis, Debye-Ang**2):
  XXX=              0.0076  YYY=             -2.2029  ZZZ=              0.0000  XYY=              0.0045
  XXY=              1.1282  XXZ=              0.0000  XZZ=              0.0026  YZZ=             -0.2961
  YYZ=              0.0000  XYZ=              0.0000
 Hexadecapole moment (field-independent basis, Debye-Ang**3):
 XXXX=            -81.8087 YYYY=            -38.2162 ZZZZ=            -15.8581 XXXY=             -0.0211
 XXXZ=              0.0000 YYYX=             -0.0188 YYYZ=              0.0000 ZZZX=              0.0000
 ZZZY=              0.0000 XXYY=            -19.0623 XXZZ=            -15.3492 YYZZ=             -8.7373
 XXYZ=              0.0000 YYXZ=              0.0000 ZZXY=             -0.0063
 N-N= 1.311423183673D+02 E-N=-1.564398666368D+03  KE= 5.491888107569D+02
 Symmetry A'   KE= 5.050554736345D+02
 Symmetry A"   KE= 4.413333712235D+01
 Calling FoFJK, ICntrl=      2127 FMM=F ISym2X=1 I1Cent= 0 IOpClX= 0 NMat=1 NMatS=1 NMatT=0.
 ***** Axes restored to original set *****
 -------------------------------------------------------------------
 Center     Atomic                   Forces (Hartrees/Bohr)
 Number     Number              X              Y              Z
 -------------------------------------------------------------------
      1       16          -0.395857536   -0.069973645    0.741239951
      2        8           0.811113295   -0.249728516   -0.074869989
      3        8          -0.415255759    0.319702161   -0.666369962
 -------------------------------------------------------------------
 Cartesian Forces:  Max     0.811113295 RMS     0.489399466

 GradGradGradGradGradGradGradGradGradGradGradGradGradGradGradGradGradGrad
 Berny optimization.
 FormGI is forming the generalized inverse of G from B-inverse, IUseBI=4.
 Internal  Forces:  Max     0.845922790 RMS     0.701507847
 Search for a local minimum.
 Step number   1 out of a maximum of   20
 All quantities printed in internal units (Hartrees-Bohrs-Radians)
 Mixed Optimization -- RFO/linear search
 Second derivative matrix not updated -- first step.
 The second derivative matrix:
                          R1        R2        A1
           R1           4.39740
           R2           0.00000   4.37258
           A1           0.00000   0.00000   0.25000
 ITU=  0
     Eigenvalues ---    0.25000   4.37258   4.39740
 RFO step:  Lambda=-3.81605718D-01 EMin= 2.50000000D-01
 Linear search not attempted -- first point.
 Maximum step size (   0.300) exceeded in Quadratic search.
    -- Step size scaled by   0.681
 Iteration  1 RMS(Cart)=  0.19360871 RMS(Int)=  0.03513885
 Iteration  2 RMS(Cart)=  0.03886551 RMS(Int)=  0.00087305
 Iteration  3 RMS(Cart)=  0.00086497 RMS(Int)=  0.00000006
 Iteration  4 RMS(Cart)=  0.00000006 RMS(Int)=  0.00000000
 ClnCor:  largest displacement from symmetrization is 1.00D-15 for atom     1.
 Variable       Old X    -DE/DX   Delta X   Delta X   Delta X     New X
                                 (Linear)    (Quad)   (Total)
    R1        2.25530   0.84592   0.00000   0.12060   0.12060   2.37591
    R2        2.25669   0.84168   0.00000   0.12063   0.12063   2.37732
    A1        1.86421   0.22877   0.00000   0.24679   0.24679   2.11100
         Item               Value     Threshold  Converged?
 Maximum Force            0.845923     0.000450     NO 
 RMS     Force            0.701508     0.000300     NO 
 Maximum Displacement     0.240068     0.001800     NO 
 RMS     Displacement     0.225035     0.001200     NO 
 Predicted change in Energy=-1.886016D-01
 GradGradGradGradGradGradGradGradGradGradGradGradGradGradGradGradGradGrad

                          Input orientation:                          
 ---------------------------------------------------------------------
 Center     Atomic      Atomic             Coordinates (Angstroms)
 Number     Number       Type             X           Y           Z
 ---------------------------------------------------------------------
      1         16           0        0.110867   -2.262585   -1.272568
      2          8           0        1.307861   -2.632479   -1.378062
      3          8           0       -0.508898   -1.787656   -2.258950
 ---------------------------------------------------------------------
                    Distance matrix (angstroms):
                    1          2          3
     1  S    0.000000
     2  O    1.257277   0.000000
     3  O    1.258021   2.188677   0.000000
 Stoichiometry    O2S
 Framework group  CS[SG(O2S)]
 Deg. of freedom     3
 Full point group                 CS      NOp   2
 Largest Abelian subgroup         CS      NOp   2
 Largest concise Abelian subgroup C1      NOp   1
                         Standard orientation:                         
 ---------------------------------------------------------------------
 Center     Atomic      Atomic             Coordinates (Angstroms)
 Number     Number       Type             X           Y           Z
 ---------------------------------------------------------------------
      1         16           0        0.000000    0.309881    0.000000
      2          8           0        1.094338   -0.309126    0.000000
      3          8           0       -1.094338   -0.310636    0.000000
 ---------------------------------------------------------------------
 Rotational constants (GHZ):     82.2823389     13.1917309     11.3690186
 Standard basis: 6-31G(d) (6D, 7F)
 There are    36 symmetry adapted cartesian basis functions of A'  symmetry.
 There are    13 symmetry adapted cartesian basis functions of A"  symmetry.
 There are    36 symmetry adapted basis functions of A'  symmetry.
 There are    13 symmetry adapted basis functions of A"  symmetry.
    49 basis functions,   108 primitive gaussians,    49 cartesian basis functions
    16 alpha electrons       16 beta electrons
       nuclear repulsion energy       123.1902346387 Hartrees.
 NAtoms=    3 NActive=    3 NUniq=    3 SFac= 1.00D+00 NAtFMM=   60 NAOKFM=F Big=F
 Integral buffers will be    131072 words long.
 Raffenetti 2 integral format.
 Two-electron integral symmetry is turned on.
 One-electron integrals computed using PRISM.
 NBasis=    49 RedAO= T EigKep=  1.34D-02  NBF=    36    13
 NBsUse=    49 1.00D-06 EigRej= -1.00D+00 NBFU=    36    13
 Initial guess from the checkpoint file:  "/tmp/Gau-24310.chk"
 B after Tr=     0.000000    0.000000    0.000000
         Rot=    1.000000    0.000000    0.000000   -0.000020 Ang=   0.00 deg.
 Initial guess orbital symmetries:
       Occupied  (A') (A') (A') (A') (A') (A") (A') (A') (A') (A')
                 (A") (A') (A') (A") (A') (A')
       Virtual   (A') (A') (A') (A') (A') (A') (A') (A') (A') (A')
                 (A') (A') (A') (A') (A') (A') (A') (A') (A') (A')
                 (A') (A') (A') (A") (A") (A") (A") (A") (A") (A")
                 (A") (A") (A")
 ExpMin= 1.17D-01 ExpMax= 2.19D+04 ExpMxC= 3.30D+03 IAcc=2 IRadAn=         4 AccDes= 0.00D+00
 Harris functional with IExCor=  402 and IRadAn=       4 diagonalized for initial guess.
 HarFok:  IExCor=  402 AccDes= 0.00D+00 IRadAn=         4 IDoV= 1 UseB2=F ITyADJ=14
 ICtDFT=  3500011 ScaDFX=  1.000000  1.000000  1.000000  1.000000
 FoFCou: FMM=F IPFlag=           0 FMFlag=      100000 FMFlg1=           0
         NFxFlg=           0 DoJE=T BraDBF=F KetDBF=T FulRan=T
         wScrn=  0.000000 ICntrl=     500 IOpCl=  0 I1Cent=   200000004 NGrid=           0
         NMat0=    1 NMatS0=      1 NMatT0=    0 NMatD0=    1 NMtDS0=    0 NMtDT0=    0
 Petite list used in FoFCou.
 Keep R1 ints in memory in symmetry-blocked form, NReq=1651738.
 Requested convergence on RMS density matrix=1.00D-08 within 128 cycles.
 Requested convergence on MAX density matrix=1.00D-06.
 Requested convergence on             energy=1.00D-06.
 No special actions if energy rises.
 Integral accuracy reduced to 1.0D-05 until final iterations.
 Initial convergence to 1.0D-05 achieved.  Increase integral accuracy.
 SCF Done:  E(RB3LYP) =  -548.435586991     A.U. after   12 cycles
            NFock= 12  Conv=0.23D-08     -V/T= 2.0010
 Calling FoFJK, ICntrl=      2127 FMM=F ISym2X=1 I1Cent= 0 IOpClX= 0 NMat=1 NMatS=1 NMatT=0.
 ***** Axes restored to original set *****
 -------------------------------------------------------------------
 Center     Atomic                   Forces (Hartrees/Bohr)
 Number     Number              X              Y              Z
 -------------------------------------------------------------------
      1       16          -0.221699564   -0.038797773    0.413694805
      2        8           0.467238467   -0.146082626   -0.034946442
      3        8          -0.245538903    0.184880399   -0.378748363
 -------------------------------------------------------------------
 Cartesian Forces:  Max     0.467238467 RMS     0.279004772

 GradGradGradGradGradGradGradGradGradGradGradGradGradGradGradGradGradGrad
 Berny optimization.
 Using GEDIIS/GDIIS optimizer.
 FormGI is forming the generalized inverse of G from B-inverse, IUseBI=4.
 Internal  Forces:  Max     0.490745811 RMS     0.399560478
 Search for a local minimum.
 Step number   2 out of a maximum of   20
 All quantities printed in internal units (Hartrees-Bohrs-Radians)
 Mixed Optimization -- RFO/linear search
 Update second derivatives using D2CorX and points    1    2
 DE= -1.85D-01 DEPred=-1.89D-01 R= 9.79D-01
 TightC=F SS=  1.41D+00  RLast= 3.00D-01 DXNew= 5.0454D-01 9.0000D-01
 Trust test= 9.79D-01 RLast= 3.00D-01 DXMaxT set to 5.05D-01
 The second derivative matrix:
                          R1        R2        A1
           R1           3.34070
           R2          -1.04908   3.33107
           A1           0.31938   0.31873   0.55293
 ITU=  1  0
 Use linear search instead of GDIIS.
 Linear search step of   0.600 exceeds DXMaxT=   0.505 but not scaled.
 Quartic linear search produced a step of  2.00000.
 Iteration  1 RMS(Cart)=  0.23984388 RMS(Int)=  0.18211775
 Iteration  2 RMS(Cart)=  0.15104357 RMS(Int)=  0.06856186
 Iteration  3 RMS(Cart)=  0.07741404 RMS(Int)=  0.00372892
 Iteration  4 RMS(Cart)=  0.00371717 RMS(Int)=  0.00000041
 Iteration  5 RMS(Cart)=  0.00000045 RMS(Int)=  0.00000000
 ClnCor:  largest displacement from symmetrization is 3.58D-15 for atom     3.
 Variable       Old X    -DE/DX   Delta X   Delta X   Delta X     New X
                                 (Linear)    (Quad)   (Total)
    R1        2.37591   0.49075   0.24121   0.00000   0.24121   2.61712
    R2        2.37732   0.48773   0.24125   0.00000   0.24125   2.61857
    A1        2.11100   0.01535   0.49357   0.00000   0.49357   2.60457
         Item               Value     Threshold  Converged?
 Maximum Force            0.490746     0.000450     NO 
 RMS     Force            0.399560     0.000300     NO 
 Maximum Displacement     0.452591     0.001800     NO 
 RMS     Displacement     0.434903     0.001200     NO 
 Predicted change in Energy=-3.279041D-02
 GradGradGradGradGradGradGradGradGradGradGradGradGradGradGradGradGradGrad

                          Input orientation:                          
 ---------------------------------------------------------------------
 Center     Atomic      Atomic             Coordinates (Angstroms)
 Number     Number       Type             X           Y           Z
 ---------------------------------------------------------------------
      1         16           0        0.189255   -2.248370   -1.420665
      2          8           0        1.468974   -2.732739   -1.206867
      3          8           0       -0.748399   -1.701610   -2.282049
 ---------------------------------------------------------------------
                    Distance matrix (angstroms):
                    1          2          3
     1  S    0.000000
     2  O    1.384920   0.000000
     3  O    1.385686   2.671327   0.000000
 Stoichiometry    O2S
 Framework group  CS[SG(O2S)]
 Deg. of freedom     3
 Full point group                 CS      NOp   2
 Largest Abelian subgroup         CS      NOp   2
 Largest concise Abelian subgroup C1      NOp   1
                         Standard orientation:                         
 ---------------------------------------------------------------------
 Center     Atomic      Atomic             Coordinates (Angstroms)
 Number     Number       Type             X           Y           Z
 ---------------------------------------------------------------------
      1         16           0        0.000000    0.183757    0.000000
      2          8           0        1.335663   -0.182314    0.000000
      3          8           0       -1.335663   -0.185201    0.000000
 ---------------------------------------------------------------------
 Rotational constants (GHZ):    233.9950932      8.8554588      8.5325476
 Standard basis: 6-31G(d) (6D, 7F)
 There are    36 symmetry adapted cartesian basis functions of A'  symmetry.
 There are    13 symmetry adapted cartesian basis functions of A"  symmetry.
 There are    36 symmetry adapted basis functions of A'  symmetry.
 There are    13 symmetry adapted basis functions of A"  symmetry.
    49 basis functions,   108 primitive gaussians,    49 cartesian basis functions
    16 alpha electrons       16 beta electrons
       nuclear repulsion energy       110.4685290451 Hartrees.
 NAtoms=    3 NActive=    3 NUniq=    3 SFac= 1.00D+00 NAtFMM=   60 NAOKFM=F Big=F
 Integral buffers will be    131072 words long.
 Raffenetti 2 integral format.
 Two-electron integral symmetry is turned on.
 One-electron integrals computed using PRISM.
 NBasis=    49 RedAO= T EigKep=  1.52D-02  NBF=    36    13
 NBsUse=    49 1.00D-06 EigRej= -1.00D+00 NBFU=    36    13
 Initial guess from the checkpoint file:  "/tmp/Gau-24310.chk"
 B after Tr=     0.000000    0.000000    0.000000
         Rot=    1.000000    0.000000    0.000000   -0.000182 Ang=  -0.02 deg.
 Initial guess orbital symmetries:
       Occupied  (A') (A') (A') (A') (A') (A") (A') (A') (A') (A')
                 (A") (A') (A') (A") (A') (A')
       Virtual   (A') (A') (A') (A') (A') (A') (A') (A') (A') (A')
                 (A') (A') (A') (A') (A') (A') (A') (A') (A') (A')
                 (A') (A') (A') (A") (A") (A") (A") (A") (A") (A")
                 (A") (A") (A")
 ExpMin= 1.17D-01 ExpMax= 2.19D+04 ExpMxC= 3.30D+03 IAcc=2 IRadAn=         4 AccDes= 0.00D+00
 Harris functional with IExCor=  402 and IRadAn=       4 diagonalized for initial guess.
 HarFok:  IExCor=  402 AccDes= 0.00D+00 IRadAn=         4 IDoV= 1 UseB2=F ITyADJ=14
 ICtDFT=  3500011 ScaDFX=  1.000000  1.000000  1.000000  1.000000
 FoFCou: FMM=F IPFlag=           0 FMFlag=      100000 FMFlg1=           0
         NFxFlg=           0 DoJE=T BraDBF=F KetDBF=T FulRan=T
         wScrn=  0.000000 ICntrl=     500 IOpCl=  0 I1Cent=   200000004 NGrid=           0
         NMat0=    1 NMatS0=      1 NMatT0=    0 NMatD0=    1 NMtDS0=    0 NMtDT0=    0
 Petite list used in FoFCou.
 Keep R1 ints in memory in symmetry-blocked form, NReq=1651738.
 Requested convergence on RMS density matrix=1.00D-08 within 128 cycles.
 Requested convergence on MAX density matrix=1.00D-06.
 Requested convergence on             energy=1.00D-06.
 No special actions if energy rises.
 Integral accuracy reduced to 1.0D-05 until final iterations.
 Initial convergence to 1.0D-05 achieved.  Increase integral accuracy.
 SCF Done:  E(RB3LYP) =  -548.526048548     A.U. after   14 cycles
            NFock= 14  Conv=0.38D-08     -V/T= 2.0039
 Calling FoFJK, ICntrl=      2127 FMM=F ISym2X=1 I1Cent= 0 IOpClX= 0 NMat=1 NMatS=1 NMatT=0.
 ***** Axes restored to original set *****
 -------------------------------------------------------------------
 Center     Atomic                   Forces (Hartrees/Bohr)
 Number     Number              X              Y              Z
 -------------------------------------------------------------------
      1       16          -0.086040011   -0.014856215    0.159813968
      2        8           0.129892549   -0.032905017   -0.038020551
      3        8          -0.043852538    0.047761231   -0.121793417
 -------------------------------------------------------------------
 Cartesian Forces:  Max     0.159813968 RMS     0.089195346

 GradGradGradGradGradGradGradGradGradGradGradGradGradGradGradGradGradGrad
 Berny optimization.
 Using GEDIIS/GDIIS optimizer.
 FormGI is forming the generalized inverse of G from B-inverse, IUseBI=4.
 Internal  Forces:  Max     0.157218604 RMS     0.136555612
 Search for a local minimum.
 Step number   3 out of a maximum of   20
 All quantities printed in internal units (Hartrees-Bohrs-Radians)
 Mixed Optimization -- RFO/linear search
 Update second derivatives using D2CorX and points    2    3
 The second derivative matrix:
                          R1        R2        A1
           R1           2.93870
           R2          -1.45013   2.93095
           A1           0.01233   0.01253   0.33747
 ITU=  0  1  0
 Use linear search instead of GDIIS.
     Eigenvalues ---    0.33720   1.48496   4.38497
 RFO step:  Lambda=-9.00141667D-02 EMin= 3.37202006D-01
 Quartic linear search produced a step of -0.11633.
 Iteration  1 RMS(Cart)=  0.12596106 RMS(Int)=  0.13650146
 Iteration  2 RMS(Cart)=  0.14553543 RMS(Int)=  0.02368814
 Iteration  3 RMS(Cart)=  0.03305403 RMS(Int)=  0.00038032
 Iteration  4 RMS(Cart)=  0.00030647 RMS(Int)=  0.00000002
 Iteration  5 RMS(Cart)=  0.00000003 RMS(Int)=  0.00000000
 ClnCor:  largest displacement from symmetrization is 9.93D-16 for atom     3.
 Variable       Old X    -DE/DX   Delta X   Delta X   Delta X     New X
                                 (Linear)    (Quad)   (Total)
    R1        2.61712   0.12566  -0.02806   0.10370   0.07564   2.69276
    R2        2.61857   0.12423  -0.02806   0.10354   0.07547   2.69404
    A1        2.60457  -0.15722  -0.05742  -0.36865  -0.42607   2.17850
         Item               Value     Threshold  Converged?
 Maximum Force            0.157219     0.000450     NO 
 RMS     Force            0.136556     0.000300     NO 
 Maximum Displacement     0.324615     0.001800     NO 
 RMS     Displacement     0.283627     0.001200     NO 
 Predicted change in Energy=-4.756041D-02
 GradGradGradGradGradGradGradGradGradGradGradGradGradGradGradGradGradGrad

                          Input orientation:                          
 ---------------------------------------------------------------------
 Center     Atomic      Atomic             Coordinates (Angstroms)
 Number     Number       Type             X           Y           Z
 ---------------------------------------------------------------------
      1         16           0        0.098298   -2.264846   -1.248886
      2          8           0        1.454318   -2.696529   -1.321944
      3          8           0       -0.642786   -1.721344   -2.338751
 ---------------------------------------------------------------------
                    Distance matrix (angstroms):
                    1          2          3
     1  S    0.000000
     2  O    1.424949   0.000000
     3  O    1.425624   2.526406   0.000000
 Stoichiometry    O2S
 Framework group  CS[SG(O2S)]
 Deg. of freedom     3
 Full point group                 CS      NOp   2
 Largest Abelian subgroup         CS      NOp   2
 Largest concise Abelian subgroup C1      NOp   1
                         Standard orientation:                         
 ---------------------------------------------------------------------
 Center     Atomic      Atomic             Coordinates (Angstroms)
 Number     Number       Type             X           Y           Z
 ---------------------------------------------------------------------
      1         16           0        0.000000    0.330061    0.000000
      2          8           0        1.263203   -0.329331    0.000000
      3          8           0       -1.263203   -0.330790    0.000000
 ---------------------------------------------------------------------
 Rotational constants (GHZ):     72.5284846      9.9005428      8.7113895
 Standard basis: 6-31G(d) (6D, 7F)
 There are    36 symmetry adapted cartesian basis functions of A'  symmetry.
 There are    13 symmetry adapted cartesian basis functions of A"  symmetry.
 There are    36 symmetry adapted basis functions of A'  symmetry.
 There are    13 symmetry adapted basis functions of A"  symmetry.
    49 basis functions,   108 primitive gaussians,    49 cartesian basis functions
    16 alpha electrons       16 beta electrons
       nuclear repulsion energy       108.4524627988 Hartrees.
 NAtoms=    3 NActive=    3 NUniq=    3 SFac= 1.00D+00 NAtFMM=   60 NAOKFM=F Big=F
 Integral buffers will be    131072 words long.
 Raffenetti 2 integral format.
 Two-electron integral symmetry is turned on.
 One-electron integrals computed using PRISM.
 NBasis=    49 RedAO= T EigKep=  1.72D-02  NBF=    36    13
 NBsUse=    49 1.00D-06 EigRej= -1.00D+00 NBFU=    36    13
 Initial guess from the checkpoint file:  "/tmp/Gau-24310.chk"
 B after Tr=     0.000000    0.000000    0.000000
         Rot=    1.000000    0.000000    0.000000    0.000235 Ang=   0.03 deg.
 Initial guess orbital symmetries:
       Occupied  (A') (A') (A') (A') (A') (A") (A') (A') (A') (A')
                 (A") (A') (A') (A") (A') (A')
       Virtual   (A') (A') (A') (A') (A') (A') (A') (A') (A') (A')
                 (A') (A') (A') (A') (A') (A') (A') (A') (A') (A')
                 (A') (A') (A') (A") (A") (A") (A") (A") (A") (A")
                 (A") (A") (A")
 ExpMin= 1.17D-01 ExpMax= 2.19D+04 ExpMxC= 3.30D+03 IAcc=2 IRadAn=         4 AccDes= 0.00D+00
 Harris functional with IExCor=  402 and IRadAn=       4 diagonalized for initial guess.
 HarFok:  IExCor=  402 AccDes= 0.00D+00 IRadAn=         4 IDoV= 1 UseB2=F ITyADJ=14
 ICtDFT=  3500011 ScaDFX=  1.000000  1.000000  1.000000  1.000000
 FoFCou: FMM=F IPFlag=           0 FMFlag=      100000 FMFlg1=           0
         NFxFlg=           0 DoJE=T BraDBF=F KetDBF=T FulRan=T
         wScrn=  0.000000 ICntrl=     500 IOpCl=  0 I1Cent=   200000004 NGrid=           0
         NMat0=    1 NMatS0=      1 NMatT0=    0 NMatD0=    1 NMtDS0=    0 NMtDT0=    0
 Petite list used in FoFCou.
 Keep R1 ints in memory in symmetry-blocked form, NReq=1651738.
 Requested convergence on RMS density matrix=1.00D-08 within 128 cycles.
 Requested convergence on MAX density matrix=1.00D-06.
 Requested convergence on             energy=1.00D-06.
 No special actions if energy rises.
 Integral accuracy reduced to 1.0D-05 until final iterations.
 Initial convergence to 1.0D-05 achieved.  Increase integral accuracy.
 SCF Done:  E(RB3LYP) =  -548.582342730     A.U. after   14 cycles
            NFock= 14  Conv=0.28D-08     -V/T= 2.0045
 Calling FoFJK, ICntrl=      2127 FMM=F ISym2X=1 I1Cent= 0 IOpClX= 0 NMat=1 NMatS=1 NMatT=0.
 ***** Axes restored to original set *****
 -------------------------------------------------------------------
 Center     Atomic                   Forces (Hartrees/Bohr)
 Number     Number              X              Y              Z
 -------------------------------------------------------------------
      1       16          -0.032758759   -0.005460121    0.060126632
      2        8           0.048129782   -0.011961539   -0.014936209
      3        8          -0.015371022    0.017421660   -0.045190423
 -------------------------------------------------------------------
 Cartesian Forces:  Max     0.060126632 RMS     0.033304592

 GradGradGradGradGradGradGradGradGradGradGradGradGradGradGradGradGradGrad
 Berny optimization.
 Using GEDIIS/GDIIS optimizer.
 FormGI is forming the generalized inverse of G from B-inverse, IUseBI=4.
 Internal  Forces:  Max     0.050191115 RMS     0.045178434
 Search for a local minimum.
 Step number   4 out of a maximum of   20
 All quantities printed in internal units (Hartrees-Bohrs-Radians)
 Mixed Optimization -- RFO/linear search
 Update second derivatives using D2CorX and points    2    3    4
 DE= -5.63D-02 DEPred=-4.76D-02 R= 1.18D+00
 TightC=F SS=  1.41D+00  RLast= 4.39D-01 DXNew= 8.4853D-01 1.3178D+00
 Trust test= 1.18D+00 RLast= 4.39D-01 DXMaxT set to 8.49D-01
 The second derivative matrix:
                          R1        R2        A1
           R1           2.86964
           R2          -1.51672   2.86682
           A1           0.06366   0.06240   0.31054
 ITU=  1  0  1  0
 Use linear search instead of GDIIS.
     Eigenvalues ---    0.30296   1.35909   4.38495
 RFO step:  Lambda=-1.27622295D-03 EMin= 3.02962760D-01
 Quartic linear search produced a step of  0.27061.
 Iteration  1 RMS(Cart)=  0.06242247 RMS(Int)=  0.00232860
 Iteration  2 RMS(Cart)=  0.00300865 RMS(Int)=  0.00000179
 Iteration  3 RMS(Cart)=  0.00000149 RMS(Int)=  0.00000000
 Iteration  4 RMS(Cart)=  0.00000000 RMS(Int)=  0.00000000
 ClnCor:  largest displacement from symmetrization is 2.55D-15 for atom     2.
 Variable       Old X    -DE/DX   Delta X   Delta X   Delta X     New X
                                 (Linear)    (Quad)   (Total)
    R1        2.69276   0.05019   0.02047   0.01924   0.03971   2.73248
    R2        2.69404   0.04918   0.02042   0.01906   0.03948   2.73352
    A1        2.17850  -0.03443  -0.11530   0.02340  -0.09189   2.08661
         Item               Value     Threshold  Converged?
 Maximum Force            0.050191     0.000450     NO 
 RMS     Force            0.045178     0.000300     NO 
 Maximum Displacement     0.075271     0.001800     NO 
 RMS     Displacement     0.063973     0.001200     NO 
 Predicted change in Energy=-4.127322D-03
 GradGradGradGradGradGradGradGradGradGradGradGradGradGradGradGradGradGrad

                          Input orientation:                          
 ---------------------------------------------------------------------
 Center     Atomic      Atomic             Coordinates (Angstroms)
 Number     Number       Type             X           Y           Z
 ---------------------------------------------------------------------
      1         16           0        0.077172   -2.268655   -1.209054
      2          8           0        1.453643   -2.689394   -1.347326
      3          8           0       -0.620985   -1.724670   -2.353200
 ---------------------------------------------------------------------
                    Distance matrix (angstroms):
                    1          2          3
     1  S    0.000000
     2  O    1.445964   0.000000
     3  O    1.446518   2.499312   0.000000
 Stoichiometry    O2S
 Framework group  CS[SG(O2S)]
 Deg. of freedom     3
 Full point group                 CS      NOp   2
 Largest Abelian subgroup         CS      NOp   2
 Largest concise Abelian subgroup C1      NOp   1
                         Standard orientation:                         
 ---------------------------------------------------------------------
 Center     Atomic      Atomic             Coordinates (Angstroms)
 Number     Number       Type             X           Y           Z
 ---------------------------------------------------------------------
      1         16           0        0.000000    0.363996    0.000000
      2          8           0        1.249656   -0.363446    0.000000
      3          8           0       -1.249656   -0.364546    0.000000
 ---------------------------------------------------------------------
 Rotational constants (GHZ):     59.6351373     10.1163642      8.6491438
 Standard basis: 6-31G(d) (6D, 7F)
 There are    36 symmetry adapted cartesian basis functions of A'  symmetry.
 There are    13 symmetry adapted cartesian basis functions of A"  symmetry.
 There are    36 symmetry adapted basis functions of A'  symmetry.
 There are    13 symmetry adapted basis functions of A"  symmetry.
    49 basis functions,   108 primitive gaussians,    49 cartesian basis functions
    16 alpha electrons       16 beta electrons
       nuclear repulsion energy       107.2206641164 Hartrees.
 NAtoms=    3 NActive=    3 NUniq=    3 SFac= 1.00D+00 NAtFMM=   60 NAOKFM=F Big=F
 Integral buffers will be    131072 words long.
 Raffenetti 2 integral format.
 Two-electron integral symmetry is turned on.
 One-electron integrals computed using PRISM.
 NBasis=    49 RedAO= T EigKep=  1.72D-02  NBF=    36    13
 NBsUse=    49 1.00D-06 EigRej= -1.00D+00 NBFU=    36    13
 Initial guess from the checkpoint file:  "/tmp/Gau-24310.chk"
 B after Tr=     0.000000    0.000000    0.000000
         Rot=    1.000000    0.000000    0.000000    0.000060 Ang=   0.01 deg.
 Initial guess orbital symmetries:
       Occupied  (A') (A') (A') (A') (A') (A") (A') (A') (A') (A')
                 (A") (A') (A') (A") (A') (A')
       Virtual   (A') (A') (A') (A') (A') (A') (A') (A') (A') (A')
                 (A') (A') (A') (A') (A') (A') (A') (A') (A') (A')
                 (A') (A') (A') (A") (A") (A") (A") (A") (A") (A")
                 (A") (A") (A")
 ExpMin= 1.17D-01 ExpMax= 2.19D+04 ExpMxC= 3.30D+03 IAcc=2 IRadAn=         4 AccDes= 0.00D+00
 Harris functional with IExCor=  402 and IRadAn=       4 diagonalized for initial guess.
 HarFok:  IExCor=  402 AccDes= 0.00D+00 IRadAn=         4 IDoV= 1 UseB2=F ITyADJ=14
 ICtDFT=  3500011 ScaDFX=  1.000000  1.000000  1.000000  1.000000
 FoFCou: FMM=F IPFlag=           0 FMFlag=      100000 FMFlg1=           0
         NFxFlg=           0 DoJE=T BraDBF=F KetDBF=T FulRan=T
         wScrn=  0.000000 ICntrl=     500 IOpCl=  0 I1Cent=   200000004 NGrid=           0
         NMat0=    1 NMatS0=      1 NMatT0=    0 NMatD0=    1 NMtDS0=    0 NMtDT0=    0
 Petite list used in FoFCou.
 Keep R1 ints in memory in symmetry-blocked form, NReq=1651738.
 Requested convergence on RMS density matrix=1.00D-08 within 128 cycles.
 Requested convergence on MAX density matrix=1.00D-06.
 Requested convergence on             energy=1.00D-06.
 No special actions if energy rises.
 Integral accuracy reduced to 1.0D-05 until final iterations.
 Initial convergence to 1.0D-05 achieved.  Increase integral accuracy.
 SCF Done:  E(RB3LYP) =  -548.586786413     A.U. after   12 cycles
            NFock= 12  Conv=0.59D-08     -V/T= 2.0047
 Calling FoFJK, ICntrl=      2127 FMM=F ISym2X=1 I1Cent= 0 IOpClX= 0 NMat=1 NMatS=1 NMatT=0.
 ***** Axes restored to original set *****
 -------------------------------------------------------------------
 Center     Atomic                   Forces (Hartrees/Bohr)
 Number     Number              X              Y              Z
 -------------------------------------------------------------------
      1       16          -0.011088441   -0.001673433    0.019710245
      2        8           0.020863731   -0.006231229   -0.002632446
      3        8          -0.009775290    0.007904662   -0.017077799
 -------------------------------------------------------------------
 Cartesian Forces:  Max     0.020863731 RMS     0.012671017

 GradGradGradGradGradGradGradGradGradGradGradGradGradGradGradGradGradGrad
 Berny optimization.
 Using GEDIIS/GDIIS optimizer.
 FormGI is forming the generalized inverse of G from B-inverse, IUseBI=4.
 Internal  Forces:  Max     0.021925877 RMS     0.017629852
 Search for a local minimum.
 Step number   5 out of a maximum of   20
 All quantities printed in internal units (Hartrees-Bohrs-Radians)
 Mixed Optimization -- RFO/linear search
 Update second derivatives using D2CorX and points    2    3    4    5
 DE= -4.44D-03 DEPred=-4.13D-03 R= 1.08D+00
 TightC=F SS=  1.41D+00  RLast= 1.08D-01 DXNew= 1.4270D+00 3.2284D-01
 Trust test= 1.08D+00 RLast= 1.08D-01 DXMaxT set to 8.49D-01
 The second derivative matrix:
                          R1        R2        A1
           R1           2.62983
           R2          -1.75048   2.63899
           A1           0.07683   0.07287   0.42266
 ITU=  1  1  0  1
 Use linear search instead of GDIIS.
     Eigenvalues ---    0.39953   0.90706   4.38489
 RFO step:  Lambda=-4.53565708D-04 EMin= 3.99525012D-01
 Quartic linear search produced a step of  0.36860.
 Iteration  1 RMS(Cart)=  0.01746659 RMS(Int)=  0.00009426
 Iteration  2 RMS(Cart)=  0.00013880 RMS(Int)=  0.00000001
 Iteration  3 RMS(Cart)=  0.00000001 RMS(Int)=  0.00000000
 ClnCor:  largest displacement from symmetrization is 1.40D-15 for atom     2.
 Variable       Old X    -DE/DX   Delta X   Delta X   Delta X     New X
                                 (Linear)    (Quad)   (Total)
    R1        2.73248   0.02193   0.01464   0.01143   0.02607   2.75855
    R2        2.73352   0.02120   0.01455   0.01129   0.02584   2.75936
    A1        2.08661  -0.00152  -0.03387   0.01940  -0.01447   2.07214
         Item               Value     Threshold  Converged?
 Maximum Force            0.021926     0.000450     NO 
 RMS     Force            0.017630     0.000300     NO 
 Maximum Displacement     0.017743     0.001800     NO 
 RMS     Displacement     0.017460     0.001200     NO 
 Predicted change in Energy=-5.578451D-04
 GradGradGradGradGradGradGradGradGradGradGradGradGradGradGradGradGradGrad

                          Input orientation:                          
 ---------------------------------------------------------------------
 Center     Atomic      Atomic             Coordinates (Angstroms)
 Number     Number       Type             X           Y           Z
 ---------------------------------------------------------------------
      1         16           0        0.072158   -2.269541   -1.199665
      2          8           0        1.461567   -2.691466   -1.349409
      3          8           0       -0.623895   -1.721712   -2.360506
 ---------------------------------------------------------------------
                    Distance matrix (angstroms):
                    1          2          3
     1  S    0.000000
     2  O    1.459761   0.000000
     3  O    1.460191   2.512348   0.000000
 Stoichiometry    O2S
 Framework group  CS[SG(O2S)]
 Deg. of freedom     3
 Full point group                 CS      NOp   2
 Largest Abelian subgroup         CS      NOp   2
 Largest concise Abelian subgroup C1      NOp   1
                         Standard orientation:                         
 ---------------------------------------------------------------------
 Center     Atomic      Atomic             Coordinates (Angstroms)
 Number     Number       Type             X           Y           Z
 ---------------------------------------------------------------------
      1         16           0        0.000000    0.372007    0.000000
      2          8           0        1.256174   -0.371585    0.000000
      3          8           0       -1.256174   -0.372429    0.000000
 ---------------------------------------------------------------------
 Rotational constants (GHZ):     57.0943811     10.0116530      8.5179990
 Standard basis: 6-31G(d) (6D, 7F)
 There are    36 symmetry adapted cartesian basis functions of A'  symmetry.
 There are    13 symmetry adapted cartesian basis functions of A"  symmetry.
 There are    36 symmetry adapted basis functions of A'  symmetry.
 There are    13 symmetry adapted basis functions of A"  symmetry.
    49 basis functions,   108 primitive gaussians,    49 cartesian basis functions
    16 alpha electrons       16 beta electrons
       nuclear repulsion energy       106.2691211659 Hartrees.
 NAtoms=    3 NActive=    3 NUniq=    3 SFac= 1.00D+00 NAtFMM=   60 NAOKFM=F Big=F
 Integral buffers will be    131072 words long.
 Raffenetti 2 integral format.
 Two-electron integral symmetry is turned on.
 One-electron integrals computed using PRISM.
 NBasis=    49 RedAO= T EigKep=  1.74D-02  NBF=    36    13
 NBsUse=    49 1.00D-06 EigRej= -1.00D+00 NBFU=    36    13
 Initial guess from the checkpoint file:  "/tmp/Gau-24310.chk"
 B after Tr=     0.000000    0.000000    0.000000
         Rot=    1.000000    0.000000    0.000000    0.000044 Ang=   0.01 deg.
 Initial guess orbital symmetries:
       Occupied  (A') (A') (A') (A') (A') (A") (A') (A') (A') (A')
                 (A") (A') (A') (A") (A') (A')
       Virtual   (A') (A') (A') (A') (A') (A') (A') (A') (A') (A')
                 (A') (A') (A') (A') (A') (A') (A') (A') (A') (A')
                 (A') (A') (A') (A") (A") (A") (A") (A") (A") (A")
                 (A") (A") (A")
 Keep R1 ints in memory in symmetry-blocked form, NReq=1651738.
 Requested convergence on RMS density matrix=1.00D-08 within 128 cycles.
 Requested convergence on MAX density matrix=1.00D-06.
 Requested convergence on             energy=1.00D-06.
 No special actions if energy rises.
 SCF Done:  E(RB3LYP) =  -548.587447623     A.U. after   10 cycles
            NFock= 10  Conv=0.12D-08     -V/T= 2.0049
 Calling FoFJK, ICntrl=      2127 FMM=F ISym2X=1 I1Cent= 0 IOpClX= 0 NMat=1 NMatS=1 NMatT=0.
 ***** Axes restored to original set *****
 -------------------------------------------------------------------
 Center     Atomic                   Forces (Hartrees/Bohr)
 Number     Number              X              Y              Z
 -------------------------------------------------------------------
      1       16          -0.001715237   -0.000072044    0.002362721
      2        8           0.004563984   -0.001647662    0.000469408
      3        8          -0.002848747    0.001719706   -0.002832129
 -------------------------------------------------------------------
 Cartesian Forces:  Max     0.004563984 RMS     0.002389525

 GradGradGradGradGradGradGradGradGradGradGradGradGradGradGradGradGradGrad
 Berny optimization.
 Using GEDIIS/GDIIS optimizer.
 FormGI is forming the generalized inverse of G from B-inverse, IUseBI=4.
 Internal  Forces:  Max     0.004772110 RMS     0.004017643
 Search for a local minimum.
 Step number   6 out of a maximum of   20
 All quantities printed in internal units (Hartrees-Bohrs-Radians)
 Mixed Optimization -- RFO/linear search
 Update second derivatives using D2CorX and points    3    4    5    6
 DE= -6.61D-04 DEPred=-5.58D-04 R= 1.19D+00
 TightC=F SS=  1.41D+00  RLast= 3.95D-02 DXNew= 1.4270D+00 1.1837D-01
 Trust test= 1.19D+00 RLast= 3.95D-02 DXMaxT set to 8.49D-01
 The second derivative matrix:
                          R1        R2        A1
           R1           2.51412
           R2          -1.85617   2.54294
           A1           0.02999   0.02543   0.39433
 ITU=  1  1  1  0
 Use linear search instead of GDIIS.
     Eigenvalues ---    0.38890   0.67772   4.38476
 RFO step:  Lambda=-3.40676221D-05 EMin= 3.88900741D-01
 Quartic linear search produced a step of  0.21677.
 Iteration  1 RMS(Cart)=  0.00820045 RMS(Int)=  0.00001178
 Iteration  2 RMS(Cart)=  0.00001254 RMS(Int)=  0.00000000
 Iteration  3 RMS(Cart)=  0.00000000 RMS(Int)=  0.00000000
 ClnCor:  largest displacement from symmetrization is 1.33D-15 for atom     2.
 Variable       Old X    -DE/DX   Delta X   Delta X   Delta X     New X
                                 (Linear)    (Quad)   (Total)
    R1        2.75855   0.00477   0.00565   0.00117   0.00682   2.76537
    R2        2.75936   0.00425   0.00560   0.00106   0.00666   2.76602
    A1        2.07214   0.00275  -0.00314   0.00890   0.00577   2.07790
         Item               Value     Threshold  Converged?
 Maximum Force            0.004772     0.000450     NO 
 RMS     Force            0.004018     0.000300     NO 
 Maximum Displacement     0.008698     0.001800     NO 
 RMS     Displacement     0.008207     0.001200     NO 
 Predicted change in Energy=-3.745746D-05
 GradGradGradGradGradGradGradGradGradGradGradGradGradGradGradGradGradGrad

                          Input orientation:                          
 ---------------------------------------------------------------------
 Center     Atomic      Atomic             Coordinates (Angstroms)
 Number     Number       Type             X           Y           Z
 ---------------------------------------------------------------------
      1         16           0        0.072698   -2.269428   -1.200743
      2          8           0        1.465629   -2.693535   -1.346778
      3          8           0       -0.628498   -1.719757   -2.362058
 ---------------------------------------------------------------------
                    Distance matrix (angstroms):
                    1          2          3
     1  S    0.000000
     2  O    1.463369   0.000000
     3  O    1.463717   2.522777   0.000000
 Stoichiometry    O2S
 Framework group  CS[SG(O2S)]
 Deg. of freedom     3
 Full point group                 CS      NOp   2
 Largest Abelian subgroup         CS      NOp   2
 Largest concise Abelian subgroup C1      NOp   1
                         Standard orientation:                         
 ---------------------------------------------------------------------
 Center     Atomic      Atomic             Coordinates (Angstroms)
 Number     Number       Type             X           Y           Z
 ---------------------------------------------------------------------
      1         16           0        0.000000    0.371099    0.000000
      2          8           0        1.261389   -0.370756    0.000000
      3          8           0       -1.261389   -0.371441    0.000000
 ---------------------------------------------------------------------
 Rotational constants (GHZ):     57.3742862      9.9290454      8.4642451
 Standard basis: 6-31G(d) (6D, 7F)
 There are    36 symmetry adapted cartesian basis functions of A'  symmetry.
 There are    13 symmetry adapted cartesian basis functions of A"  symmetry.
 There are    36 symmetry adapted basis functions of A'  symmetry.
 There are    13 symmetry adapted basis functions of A"  symmetry.
    49 basis functions,   108 primitive gaussians,    49 cartesian basis functions
    16 alpha electrons       16 beta electrons
       nuclear repulsion energy       105.9872508818 Hartrees.
 NAtoms=    3 NActive=    3 NUniq=    3 SFac= 1.00D+00 NAtFMM=   60 NAOKFM=F Big=F
 Integral buffers will be    131072 words long.
 Raffenetti 2 integral format.
 Two-electron integral symmetry is turned on.
 One-electron integrals computed using PRISM.
 NBasis=    49 RedAO= T EigKep=  1.75D-02  NBF=    36    13
 NBsUse=    49 1.00D-06 EigRej= -1.00D+00 NBFU=    36    13
 Initial guess from the checkpoint file:  "/tmp/Gau-24310.chk"
 B after Tr=     0.000000    0.000000    0.000000
         Rot=    1.000000    0.000000    0.000000    0.000027 Ang=   0.00 deg.
 Initial guess orbital symmetries:
       Occupied  (A') (A') (A') (A') (A') (A") (A') (A') (A') (A')
                 (A') (A") (A') (A") (A') (A')
       Virtual   (A') (A') (A') (A') (A') (A') (A') (A') (A') (A')
                 (A') (A') (A') (A') (A') (A') (A') (A') (A') (A')
                 (A') (A') (A') (A") (A") (A") (A") (A") (A") (A")
                 (A") (A") (A")
 Keep R1 ints in memory in symmetry-blocked form, NReq=1651738.
 Requested convergence on RMS density matrix=1.00D-08 within 128 cycles.
 Requested convergence on MAX density matrix=1.00D-06.
 Requested convergence on             energy=1.00D-06.
 No special actions if energy rises.
 SCF Done:  E(RB3LYP) =  -548.587487450     A.U. after    8 cycles
            NFock=  8  Conv=0.59D-08     -V/T= 2.0049
 Calling FoFJK, ICntrl=      2127 FMM=F ISym2X=1 I1Cent= 0 IOpClX= 0 NMat=1 NMatS=1 NMatT=0.
 ***** Axes restored to original set *****
 -------------------------------------------------------------------
 Center     Atomic                   Forces (Hartrees/Bohr)
 Number     Number              X              Y              Z
 -------------------------------------------------------------------
      1       16          -0.000261362    0.000141357   -0.000199524
      2        8           0.000303524   -0.000119868    0.000069021
      3        8          -0.000042162   -0.000021489    0.000130504
 -------------------------------------------------------------------
 Cartesian Forces:  Max     0.000303524 RMS     0.000169519

 GradGradGradGradGradGradGradGradGradGradGradGradGradGradGradGradGradGrad
 Berny optimization.
 Using GEDIIS/GDIIS optimizer.
 FormGI is forming the generalized inverse of G from B-inverse, IUseBI=4.
 Internal  Forces:  Max     0.000316765 RMS     0.000253111
 Search for a local minimum.
 Step number   7 out of a maximum of   20
 All quantities printed in internal units (Hartrees-Bohrs-Radians)
 Mixed Optimization -- En-DIIS/RFO-DIIS
 Update second derivatives using D2CorX and points    4    5    6    7
 DE= -3.98D-05 DEPred=-3.75D-05 R= 1.06D+00
 TightC=F SS=  1.41D+00  RLast= 1.11D-02 DXNew= 1.4270D+00 3.3427D-02
 Trust test= 1.06D+00 RLast= 1.11D-02 DXMaxT set to 8.49D-01
 The second derivative matrix:
                          R1        R2        A1
           R1           2.47036
           R2          -1.87308   2.55027
           A1           0.01546   0.02221   0.38232
 ITU=  1  1  1  1
 Use linear search instead of GDIIS.
     Eigenvalues ---    0.37957   0.63956   4.38383
 RFO step:  Lambda=-1.29384621D-07 EMin= 3.79572268D-01
 Quartic linear search produced a step of  0.04433.
 Iteration  1 RMS(Cart)=  0.00066144 RMS(Int)=  0.00000016
 Iteration  2 RMS(Cart)=  0.00000012 RMS(Int)=  0.00000000
 ClnCor:  largest displacement from symmetrization is 1.99D-15 for atom     3.
 Variable       Old X    -DE/DX   Delta X   Delta X   Delta X     New X
                                 (Linear)    (Quad)   (Total)
    R1        2.76537   0.00032   0.00030  -0.00009   0.00021   2.76558
    R2        2.76602  -0.00009   0.00030  -0.00018   0.00011   2.76614
    A1        2.07790   0.00029   0.00026   0.00049   0.00075   2.07865
         Item               Value     Threshold  Converged?
 Maximum Force            0.000317     0.000450     YES
 RMS     Force            0.000253     0.000300     YES
 Maximum Displacement     0.000665     0.001800     YES
 RMS     Displacement     0.000661     0.001200     YES
 Predicted change in Energy=-1.347751D-07
 Optimization completed.
    -- Stationary point found.
                           ----------------------------
                           !   Optimized Parameters   !
                           ! (Angstroms and Degrees)  !
 --------------------------                            --------------------------
 ! Name  Definition              Value          Derivative Info.                !
 --------------------------------------------------------------------------------
 ! R1    R(1,2)                  1.4634         -DE/DX =    0.0003              !
 ! R2    R(1,3)                  1.4637         -DE/DX =   -0.0001              !
 ! A1    A(2,1,3)              119.0551         -DE/DX =    0.0003              !
 --------------------------------------------------------------------------------
 GradGradGradGradGradGradGradGradGradGradGradGradGradGradGradGradGradGrad

                          Input orientation:                          
 ---------------------------------------------------------------------
 Center     Atomic      Atomic             Coordinates (Angstroms)
 Number     Number       Type             X           Y           Z
 ---------------------------------------------------------------------
      1         16           0        0.072698   -2.269428   -1.200743
      2          8           0        1.465629   -2.693535   -1.346778
      3          8           0       -0.628498   -1.719757   -2.362058
 ---------------------------------------------------------------------
                    Distance matrix (angstroms):
                    1          2          3
     1  S    0.000000
     2  O    1.463369   0.000000
     3  O    1.463717   2.522777   0.000000
 Stoichiometry    O2S
 Framework group  CS[SG(O2S)]
 Deg. of freedom     3
 Full point group                 CS      NOp   2
 Largest Abelian subgroup         CS      NOp   2
 Largest concise Abelian subgroup C1      NOp   1
                         Standard orientation:                         
 ---------------------------------------------------------------------
 Center     Atomic      Atomic             Coordinates (Angstroms)
 Number     Number       Type             X           Y           Z
 ---------------------------------------------------------------------
      1         16           0        0.000000    0.371099    0.000000
      2          8           0        1.261389   -0.370756    0.000000
      3          8           0       -1.261389   -0.371441    0.000000
 ---------------------------------------------------------------------
 Rotational constants (GHZ):     57.3742862      9.9290454      8.4642451

 **********************************************************************

            Population analysis using the SCF density.

 **********************************************************************

 Orbital symmetries:
       Occupied  (A') (A') (A') (A') (A') (A") (A') (A') (A') (A')
                 (A') (A") (A') (A") (A') (A')
       Virtual   (A") (A') (A') (A') (A") (A') (A') (A") (A") (A')
                 (A') (A') (A") (A') (A') (A") (A') (A') (A') (A')
                 (A") (A") (A') (A') (A') (A") (A") (A') (A') (A')
                 (A') (A') (A')
 The electronic state is 1-A'.
 Alpha  occ. eigenvalues --  -89.08312 -19.21142 -19.21137  -8.12305  -6.08685
 Alpha  occ. eigenvalues --   -6.08671  -6.08151  -1.13827  -1.04699  -0.64397
 Alpha  occ. eigenvalues --   -0.49076  -0.48961  -0.48739  -0.36618  -0.35409
 Alpha  occ. eigenvalues --   -0.33021
 Alpha virt. eigenvalues --   -0.13292   0.04759   0.06787   0.23846   0.28659
 Alpha virt. eigenvalues --    0.32734   0.39484   0.65023   0.65448   0.65460
 Alpha virt. eigenvalues --    0.76730   0.78951   0.92179   0.94270   0.99040
 Alpha virt. eigenvalues --    0.99169   1.02714   1.13882   1.24193   1.29475
 Alpha virt. eigenvalues --    1.74009   1.74807   1.75605   1.77055   1.85640
 Alpha virt. eigenvalues --    1.96868   2.02304   2.18659   2.63514   2.76128
 Alpha virt. eigenvalues --    3.55815   3.58246   3.89239
          Condensed to atoms (all electrons):
               1          2          3
     1  S   14.666001   0.257719   0.257625
     2  O    0.257719   8.188739  -0.037245
     3  O    0.257625  -0.037245   8.189062
 Mulliken charges:
               1
     1  S    0.818655
     2  O   -0.409213
     3  O   -0.409442
 Sum of Mulliken charges =   0.00000
 Mulliken charges with hydrogens summed into heavy atoms:
               1
     1  S    0.818655
     2  O   -0.409213
     3  O   -0.409442
 Electronic spatial extent (au):  <R**2>=            158.5067
 Charge=              0.0000 electrons
 Dipole moment (field-independent basis, Debye):
    X=              0.0011    Y=              1.7797    Z=              0.0000  Tot=              1.7797
 Quadrupole moment (field-independent basis, Debye-Ang):
   XX=            -26.7703   YY=            -22.3866   ZZ=            -20.5949
   XY=             -0.0013   XZ=              0.0000   YZ=              0.0000
 Traceless Quadrupole moment (field-independent basis, Debye-Ang):
   XX=             -3.5197   YY=              0.8640   ZZ=              2.6558
   XY=             -0.0013   XZ=              0.0000   YZ=              0.0000
 Octapole moment (field-independent basis, Debye-Ang**2):
  XXX=              0.0029  YYY=             -0.5652  ZZZ=              0.0000  XYY=              0.0019
  XXY=              1.5388  XXZ=              0.0000  XZZ=              0.0009  YZZ=             -0.1187
  YYZ=              0.0000  XYZ=              0.0000
 Hexadecapole moment (field-independent basis, Debye-Ang**3):
 XXXX=           -129.5543 YYYY=            -39.4765 ZZZZ=            -18.0028 XXXY=             -0.0155
 XXXZ=              0.0000 YYYX=             -0.0145 YYYZ=              0.0000 ZZZX=              0.0000
 ZZZY=              0.0000 XXYY=            -27.1281 XXZZ=            -23.1315 YYZZ=             -9.3903
 XXYZ=              0.0000 YYXZ=              0.0000 ZZXY=             -0.0046
 N-N= 1.059872508818D+02 E-N=-1.511924984217D+03  KE= 5.459060462982D+02
 Symmetry A'   KE= 5.022854210509D+02
 Symmetry A"   KE= 4.362062524735D+01
 1\1\GINC-C-2-15\FOpt\RB3LYP\6-31G(d)\O2S1\ROOT\06-Feb-2018\0\\# opt fr
 eq b3lyp/6-31(d) Integral(Grid=UltraFine)\\Title\\0,1\S,0.07269843,-2.
 2694278808,-1.200743402\O,1.4656292834,-2.6935350282,-1.3467784294\O,-
 0.6284977133,-1.719757091,-2.3620581685\\Version=AS64L-G09RevD.01\Stat
 e=1-A'\HF=-548.5874875\RMSD=5.914e-09\RMSF=1.695e-04\Dipole=-0.3259514
 ,-0.0593902,0.6168555\Quadrupole=-1.4786813,1.280905,0.1977764,1.41862
 8,-0.9868917,0.8123499\PG=CS [SG(O2S1)]\\@


 ... IT CAN BE VERY DIFFICULT, IN THESE COMPLEX TIMES,
 TO UNDERSTAND JUST HOW SCIENTISTS DO WHAT THEY DO.

                     DON MOSER IN THE FEBRUARY 1979 SMITHSONIAN
 Job cpu time:       0 days  0 hours  0 minutes 37.1 seconds.
 File lengths (MBytes):  RWF=      5 Int=      0 D2E=      0 Chk=      1 Scr=      1
 Normal termination of Gaussian 09 at Tue Feb  6 11:27:30 2018.
 Link1:  Proceeding to internal job step number  2.
 --------------------------------------------------------------------
 #N Geom=AllCheck Guess=TCheck SCRF=Check GenChk RB3LYP/6-31G(d) Freq
 --------------------------------------------------------------------
 1/10=4,29=7,30=1,38=1,40=1/1,3;
 2/12=2,40=1/2;
 3/5=1,6=6,7=1,11=2,14=-4,16=1,25=1,30=1,70=2,71=2,74=-5,75=-5,116=1,140=1/1,2,3;
 4/5=101/1;
 5/5=2,98=1/2;
 8/6=4,10=90,11=11/1;
 11/6=1,8=1,9=11,15=111,16=1/1,2,10;
 10/6=1/2;
 6/7=2,8=2,9=2,10=2,18=1,28=1/1;
 7/8=1,10=1,25=1/1,2,3,16;
 1/10=4,30=1/3;
 99//99;
 Structure from the checkpoint file:  "/tmp/Gau-24310.chk"
 -----
 Title
 -----
 Charge =  0 Multiplicity = 1
 Redundant internal coordinates found in file.
 S,0,0.07269843,-2.2694278808,-1.200743402
 O,0,1.4656292834,-2.6935350282,-1.3467784294
 O,0,-0.6284977133,-1.719757091,-2.3620581685
 Recover connectivity data from disk.

 GradGradGradGradGradGradGradGradGradGradGradGradGradGradGradGradGradGrad
 Berny optimization.
 Initialization pass.
                           ----------------------------
                           !    Initial Parameters    !
                           ! (Angstroms and Degrees)  !
 --------------------------                            --------------------------
 ! Name  Definition              Value          Derivative Info.                !
 --------------------------------------------------------------------------------
 ! R1    R(1,2)                  1.4634         calculate D2E/DX2 analytically  !
 ! R2    R(1,3)                  1.4637         calculate D2E/DX2 analytically  !
 ! A1    A(2,1,3)              119.0551         calculate D2E/DX2 analytically  !
 --------------------------------------------------------------------------------
 Trust Radius=3.00D-01 FncErr=1.00D-07 GrdErr=1.00D-07
 Number of steps in this run=      2 maximum allowed number of steps=      2.
 GradGradGradGradGradGradGradGradGradGradGradGradGradGradGradGradGradGrad

                          Input orientation:                          
 ---------------------------------------------------------------------
 Center     Atomic      Atomic             Coordinates (Angstroms)
 Number     Number       Type             X           Y           Z
 ---------------------------------------------------------------------
      1         16           0        0.072698   -2.269428   -1.200743
      2          8           0        1.465629   -2.693535   -1.346778
      3          8           0       -0.628498   -1.719757   -2.362058
 ---------------------------------------------------------------------
                    Distance matrix (angstroms):
                    1          2          3
     1  S    0.000000
     2  O    1.463369   0.000000
     3  O    1.463717   2.522777   0.000000
 Stoichiometry    O2S
 Framework group  CS[SG(O2S)]
 Deg. of freedom     3
 Full point group                 CS      NOp   2
 Largest Abelian subgroup         CS      NOp   2
 Largest concise Abelian subgroup C1      NOp   1
                         Standard orientation:                         
 ---------------------------------------------------------------------
 Center     Atomic      Atomic             Coordinates (Angstroms)
 Number     Number       Type             X           Y           Z
 ---------------------------------------------------------------------
      1         16           0        0.000000    0.371099    0.000000
      2          8           0        1.261389   -0.370756    0.000000
      3          8           0       -1.261389   -0.371441    0.000000
 ---------------------------------------------------------------------
 Rotational constants (GHZ):     57.3742862      9.9290454      8.4642451
 Standard basis: 6-31G(d) (6D, 7F)
 There are    36 symmetry adapted cartesian basis functions of A'  symmetry.
 There are    13 symmetry adapted cartesian basis functions of A"  symmetry.
 There are    36 symmetry adapted basis functions of A'  symmetry.
 There are    13 symmetry adapted basis functions of A"  symmetry.
    49 basis functions,   108 primitive gaussians,    49 cartesian basis functions
    16 alpha electrons       16 beta electrons
       nuclear repulsion energy       105.9872508818 Hartrees.
 NAtoms=    3 NActive=    3 NUniq=    3 SFac= 1.00D+00 NAtFMM=   60 NAOKFM=F Big=F
 Integral buffers will be    131072 words long.
 Raffenetti 2 integral format.
 Two-electron integral symmetry is turned on.
 One-electron integrals computed using PRISM.
 NBasis=    49 RedAO= T EigKep=  1.75D-02  NBF=    36    13
 NBsUse=    49 1.00D-06 EigRej= -1.00D+00 NBFU=    36    13
 Initial guess from the checkpoint file:  "/tmp/Gau-24310.chk"
 B after Tr=     0.000000    0.000000    0.000000
         Rot=    1.000000    0.000000    0.000000    0.000000 Ang=   0.00 deg.
 Initial guess orbital symmetries:
       Occupied  (A') (A') (A') (A') (A') (A") (A') (A') (A') (A')
                 (A') (A") (A') (A") (A') (A')
       Virtual   (A") (A') (A') (A') (A") (A') (A') (A") (A") (A')
                 (A') (A') (A") (A') (A') (A") (A') (A') (A') (A')
                 (A") (A") (A') (A') (A') (A") (A") (A') (A') (A')
                 (A') (A') (A')
 Keep R1 ints in memory in symmetry-blocked form, NReq=1651738.
 Requested convergence on RMS density matrix=1.00D-08 within 128 cycles.
 Requested convergence on MAX density matrix=1.00D-06.
 Requested convergence on             energy=1.00D-06.
 No special actions if energy rises.
 SCF Done:  E(RB3LYP) =  -548.587487450     A.U. after    1 cycles
            NFock=  1  Conv=0.14D-08     -V/T= 2.0049
 DoSCS=F DFT=T ScalE2(SS,OS)=  1.000000  1.000000
 Range of M.O.s used for correlation:     1    49
 NBasis=    49 NAE=    16 NBE=    16 NFC=     0 NFV=     0
 NROrb=     49 NOA=    16 NOB=    16 NVA=    33 NVB=    33
 Symmetrizing basis deriv contribution to polar:
 IMax=3 JMax=2 DiffMx= 0.00D+00
 G2DrvN: will do     4 centers at a time, making    1 passes.
 Calling FoFCou, ICntrl=  3107 FMM=F I1Cent=   0 AccDes= 0.00D+00.
 End of G2Drv F.D. properties file   721 does not exist.
 End of G2Drv F.D. properties file   722 does not exist.
 End of G2Drv F.D. properties file   788 does not exist.
          IDoAtm=111
          Differentiating once with respect to electric field.
                with respect to dipole field.
          Differentiating once with respect to nuclear coordinates.
 Keep R1 ints in memory in symmetry-blocked form, NReq=1623486.
          There are    12 degrees of freedom in the 1st order CPHF.  IDoFFX=6 NUNeed=     3.
      9 vectors produced by pass  0 Test12= 4.40D-15 8.33D-09 XBig12= 5.91D+01 6.43D+00.
 AX will form     9 AO Fock derivatives at one time.
      9 vectors produced by pass  1 Test12= 4.40D-15 8.33D-09 XBig12= 2.30D+01 2.02D+00.
      9 vectors produced by pass  2 Test12= 4.40D-15 8.33D-09 XBig12= 5.41D-01 3.29D-01.
      9 vectors produced by pass  3 Test12= 4.40D-15 8.33D-09 XBig12= 2.09D-02 7.82D-02.
      9 vectors produced by pass  4 Test12= 4.40D-15 8.33D-09 XBig12= 1.42D-04 6.01D-03.
      9 vectors produced by pass  5 Test12= 4.40D-15 8.33D-09 XBig12= 3.97D-07 2.04D-04.
      5 vectors produced by pass  6 Test12= 4.40D-15 8.33D-09 XBig12= 4.68D-10 6.67D-06.
      2 vectors produced by pass  7 Test12= 4.40D-15 8.33D-09 XBig12= 3.44D-13 2.52D-07.
 InvSVY:  IOpt=1 It=  1 EMax= 6.66D-16
 Solved reduced A of dimension    61 with     9 vectors.
 Isotropic polarizability for W=    0.000000       19.38 Bohr**3.
 End of Minotr F.D. properties file   721 does not exist.
 End of Minotr F.D. properties file   722 does not exist.
 End of Minotr F.D. properties file   788 does not exist.

 **********************************************************************

            Population analysis using the SCF density.

 **********************************************************************

 Orbital symmetries:
       Occupied  (A') (A') (A') (A') (A') (A") (A') (A') (A') (A')
                 (A') (A") (A') (A") (A') (A')
       Virtual   (A") (A') (A') (A') (A") (A') (A') (A") (A") (A')
                 (A') (A') (A") (A') (A') (A") (A') (A') (A') (A')
                 (A") (A") (A') (A') (A') (A") (A") (A') (A') (A')
                 (A') (A') (A')
 The electronic state is 1-A'.
 Alpha  occ. eigenvalues --  -89.08312 -19.21142 -19.21137  -8.12305  -6.08685
 Alpha  occ. eigenvalues --   -6.08671  -6.08151  -1.13827  -1.04699  -0.64397
 Alpha  occ. eigenvalues --   -0.49076  -0.48961  -0.48739  -0.36618  -0.35409
 Alpha  occ. eigenvalues --   -0.33021
 Alpha virt. eigenvalues --   -0.13292   0.04759   0.06787   0.23846   0.28659
 Alpha virt. eigenvalues --    0.32734   0.39484   0.65023   0.65448   0.65460
 Alpha virt. eigenvalues --    0.76730   0.78951   0.92179   0.94270   0.99040
 Alpha virt. eigenvalues --    0.99169   1.02714   1.13882   1.24193   1.29475
 Alpha virt. eigenvalues --    1.74009   1.74807   1.75605   1.77055   1.85640
 Alpha virt. eigenvalues --    1.96868   2.02304   2.18659   2.63514   2.76128
 Alpha virt. eigenvalues --    3.55815   3.58246   3.89239
          Condensed to atoms (all electrons):
               1          2          3
     1  S   14.666001   0.257719   0.257625
     2  O    0.257719   8.188739  -0.037245
     3  O    0.257625  -0.037245   8.189062
 Mulliken charges:
               1
     1  S    0.818655
     2  O   -0.409213
     3  O   -0.409442
 Sum of Mulliken charges =   0.00000
 Mulliken charges with hydrogens summed into heavy atoms:
               1
     1  S    0.818655
     2  O   -0.409213
     3  O   -0.409442
 APT charges:
               1
     1  S    1.032578
     2  O   -0.516294
     3  O   -0.516284
 Sum of APT charges =   0.00000
 APT charges with hydrogens summed into heavy atoms:
               1
     1  S    1.032578
     2  O   -0.516294
     3  O   -0.516284
 Electronic spatial extent (au):  <R**2>=            158.5067
 Charge=              0.0000 electrons
 Dipole moment (field-independent basis, Debye):
    X=              0.0011    Y=              1.7797    Z=              0.0000  Tot=              1.7797
 Quadrupole moment (field-independent basis, Debye-Ang):
   XX=            -26.7703   YY=            -22.3866   ZZ=            -20.5949
   XY=             -0.0013   XZ=              0.0000   YZ=              0.0000
 Traceless Quadrupole moment (field-independent basis, Debye-Ang):
   XX=             -3.5197   YY=              0.8640   ZZ=              2.6558
   XY=             -0.0013   XZ=              0.0000   YZ=              0.0000
 Octapole moment (field-independent basis, Debye-Ang**2):
  XXX=              0.0029  YYY=             -0.5652  ZZZ=              0.0000  XYY=              0.0019
  XXY=              1.5388  XXZ=              0.0000  XZZ=              0.0009  YZZ=             -0.1187
  YYZ=              0.0000  XYZ=              0.0000
 Hexadecapole moment (field-independent basis, Debye-Ang**3):
 XXXX=           -129.5543 YYYY=            -39.4765 ZZZZ=            -18.0028 XXXY=             -0.0155
 XXXZ=              0.0000 YYYX=             -0.0145 YYYZ=              0.0000 ZZZX=              0.0000
 ZZZY=              0.0000 XXYY=            -27.1281 XXZZ=            -23.1315 YYZZ=             -9.3903
 XXYZ=              0.0000 YYXZ=              0.0000 ZZXY=             -0.0046
 N-N= 1.059872508818D+02 E-N=-1.511924984624D+03  KE= 5.459060465188D+02
 Symmetry A'   KE= 5.022854212150D+02
 Symmetry A"   KE= 4.362062530376D+01
  Exact polarizability:  29.105   0.006  15.929   0.000   0.000  13.098
 Approx polarizability:  73.168   0.026  24.609   0.000   0.000  19.614
 Calling FoFJK, ICntrl=    100127 FMM=F ISym2X=1 I1Cent= 0 IOpClX= 0 NMat=1 NMatS=1 NMatT=0.
 Full mass-weighted force constant matrix:
 Low frequencies ---  -15.3478   -8.0546   -0.0008   -0.0007    0.0013   12.1995
 Low frequencies ---  502.8529 1141.3745 1338.4076
 Diagonal vibrational polarizability:
        2.4804978       4.1885853       0.0000000
 Harmonic frequencies (cm**-1), IR intensities (KM/Mole), Raman scattering
 activities (A**4/AMU), depolarization ratios for plane and unpolarized
 incident light, reduced masses (AMU), force constants (mDyne/A),
 and normal coordinates:
                      1                      2                      3
                     A'                     A'                     A'
 Frequencies --    502.8528              1141.3745              1338.4076
 Red. masses --     18.5539                18.0125                20.3254
 Frc consts  --      2.7642                13.8255                21.4519
 IR Inten    --     33.9934                27.6319               165.1114
  Atom  AN      X      Y      Z        X      Y      Z        X      Y      Z
     1  16     0.00   0.40   0.00     0.00   0.36   0.00     0.52   0.00   0.00
     2   8    -0.51  -0.40   0.00     0.56  -0.35   0.00    -0.52   0.31   0.00
     3   8     0.51  -0.40   0.00    -0.56  -0.36   0.00    -0.52  -0.30   0.00

 -------------------
 - Thermochemistry -
 -------------------
 Temperature   298.150 Kelvin.  Pressure   1.00000 Atm.
 Atom     1 has atomic number 16 and mass  31.97207
 Atom     2 has atomic number  8 and mass  15.99491
 Atom     3 has atomic number  8 and mass  15.99491
 Molecular mass:    63.96190 amu.
 Principal axes and moments of inertia in atomic units:
                           1         2         3
     Eigenvalues --    31.45558 181.76382 213.21939
           X            1.00000  -0.00033   0.00000
           Y            0.00033   1.00000   0.00000
           Z            0.00000   0.00000   1.00000
 This molecule is an asymmetric top.
 Rotational symmetry number  1.
 Rotational temperatures (Kelvin)      2.75353     0.47652     0.40622
 Rotational constants (GHZ):          57.37429     9.92905     8.46425
 Zero-point vibrational energy      17840.1 (Joules/Mol)
                                    4.26389 (Kcal/Mol)
 Warning -- explicit consideration of   1 degrees of freedom as
           vibrations may cause significant error
 Vibrational temperatures:    723.49  1642.18  1925.67
          (Kelvin)
 
 Zero-point correction=                           0.006795 (Hartree/Particle)
 Thermal correction to Energy=                    0.009880
 Thermal correction to Enthalpy=                  0.010824
 Thermal correction to Gibbs Free Energy=        -0.018083
 Sum of electronic and zero-point Energies=           -548.580693
 Sum of electronic and thermal Energies=              -548.577607
 Sum of electronic and thermal Enthalpies=            -548.576663
 Sum of electronic and thermal Free Energies=         -548.605570
 
                     E (Thermal)             CV                S
                      KCal/Mol        Cal/Mol-Kelvin    Cal/Mol-Kelvin
 Total                    6.200              7.582             60.840
 Electronic               0.000              0.000              0.000
 Translational            0.889              2.981             38.386
 Rotational               0.889              2.981             21.727
 Vibrational              4.422              1.620              0.727
 Vibration     1          0.858              1.244              0.651
                       Q            Log10(Q)             Ln(Q)
 Total Bot       0.207664D+09          8.317361         19.151430
 Total V=0       0.277211D+12         11.442810         26.348045
 Vib (Bot)       0.826344D-03         -3.082839         -7.098499
 Vib (Bot)    1  0.326013D+00         -0.486765         -1.120818
 Vib (V=0)       0.110309D+01          0.042611          0.098115
 Vib (V=0)    1  0.109690D+01          0.040165          0.092484
 Electronic      0.100000D+01          0.000000          0.000000
 Translational   0.201065D+08          7.303337         16.816555
 Rotational      0.124986D+05          4.096862          9.433374
 ***** Axes restored to original set *****
 -------------------------------------------------------------------
 Center     Atomic                   Forces (Hartrees/Bohr)
 Number     Number              X              Y              Z
 -------------------------------------------------------------------
      1       16          -0.000261358    0.000141362   -0.000199551
      2        8           0.000303516   -0.000119867    0.000069028
      3        8          -0.000042158   -0.000021495    0.000130523
 -------------------------------------------------------------------
 Cartesian Forces:  Max     0.000303516 RMS     0.000169523
 FormGI is forming the generalized inverse of G from B-inverse, IUseBI=4.

 GradGradGradGradGradGradGradGradGradGradGradGradGradGradGradGradGradGrad
 Berny optimization.
 Internal  Forces:  Max     0.000316757 RMS     0.000253117
 Search for a local minimum.
 Step number   1 out of a maximum of    2
 All quantities printed in internal units (Hartrees-Bohrs-Radians)
 Second derivative matrix not updated -- analytic derivatives used.
 The second derivative matrix:
                          R1        R2        A1
           R1           0.62459
           R2           0.00191   0.62320
           A1           0.02207   0.02207   0.37042
 ITU=  0
     Eigenvalues ---    0.36666   0.62192   0.62963
 Angle between quadratic step and forces=  15.10 degrees.
 Linear search not attempted -- first point.
 Iteration  1 RMS(Cart)=  0.00069123 RMS(Int)=  0.00000017
 Iteration  2 RMS(Cart)=  0.00000013 RMS(Int)=  0.00000000
 ClnCor:  largest displacement from symmetrization is 9.93D-16 for atom     2.
 Variable       Old X    -DE/DX   Delta X   Delta X   Delta X     New X
                                 (Linear)    (Quad)   (Total)
    R1        2.76537   0.00032   0.00000   0.00048   0.00048   2.76585
    R2        2.76602  -0.00009   0.00000  -0.00018  -0.00018   2.76585
    A1        2.07790   0.00029   0.00000   0.00076   0.00076   2.07867
         Item               Value     Threshold  Converged?
 Maximum Force            0.000317     0.000450     YES
 RMS     Force            0.000253     0.000300     YES
 Maximum Displacement     0.000619     0.001800     YES
 RMS     Displacement     0.000691     0.001200     YES
 Predicted change in Energy=-1.942393D-07
 Optimization completed.
    -- Stationary point found.
                           ----------------------------
                           !   Optimized Parameters   !
                           ! (Angstroms and Degrees)  !
 --------------------------                            --------------------------
 ! Name  Definition              Value          Derivative Info.                !
 --------------------------------------------------------------------------------
 ! R1    R(1,2)                  1.4634         -DE/DX =    0.0003              !
 ! R2    R(1,3)                  1.4637         -DE/DX =   -0.0001              !
 ! A1    A(2,1,3)              119.0551         -DE/DX =    0.0003              !
 --------------------------------------------------------------------------------
 GradGradGradGradGradGradGradGradGradGradGradGradGradGradGradGradGradGrad

 1\1\GINC-C-2-15\Freq\RB3LYP\6-31G(d)\O2S1\ROOT\06-Feb-2018\0\\#N Geom=
 AllCheck Guess=TCheck SCRF=Check GenChk RB3LYP/6-31G(d) Freq\\Title\\0
 ,1\S,0.07269843,-2.2694278808,-1.200743402\O,1.4656292834,-2.693535028
 2,-1.3467784294\O,-0.6284977133,-1.719757091,-2.3620581685\\Version=AS
 64L-G09RevD.01\State=1-A'\HF=-548.5874875\RMSD=1.424e-09\RMSF=1.695e-0
 4\ZeroPoint=0.0067949\Thermal=0.0098802\Dipole=-0.3259513,-0.0593901,0
 .6168553\DipoleDeriv=1.3631206,-0.3305997,0.1576587,-0.3305225,0.66583
 19,-0.2075531,0.1573752,-0.2074587,1.0687823,-0.8062427,0.2232745,-0.1
 391597,0.1427904,-0.3223636,0.0928235,0.1564705,-0.0056253,-0.4202751,
 -0.5568779,0.1073252,-0.018499,0.1877321,-0.3434683,0.1147296,-0.31384
 58,0.213084,-0.6485072\Polar=24.7406464,-5.0170297,15.5029761,4.186480
 8,-2.6983019,17.8879687\PG=CS [SG(O2S1)]\NImag=0\\0.73244513,-0.278919
 42,0.14078352,0.12860971,-0.17585377,0.48864514,-0.55825785,0.17287708
 ,0.04793790,0.56621114,0.16077051,-0.05424865,0.00283552,-0.17467771,0
 .05710653,0.09240718,-0.01197335,-0.06899128,-0.05110675,0.00351546,0.
 04949497,-0.17418728,0.10604233,-0.17654760,-0.00795329,0.01390720,-0.
 04130044,0.18214057,0.11814891,-0.08653487,0.17301826,0.00180063,-0.00
 285788,0.00845789,-0.11994954,0.08939275,-0.22101689,0.18782712,-0.419
 65386,0.00316885,-0.00635098,0.01949631,0.21784804,-0.18147615,0.40015
 755\\0.00026136,-0.00014136,0.00019955,-0.00030352,0.00011987,-0.00006
 903,0.00004216,0.00002150,-0.00013052\\\@


 THERE IS NO SUBJECT, HOWEVER COMPLEX,
 WHICH, IF STUDIED WITH PATIENCE AND INTELLIGIENCE
 WILL NOT BECOME
 MORE COMPLEX
                        QUOTED BY D. GORDON ROHMAN
 Job cpu time:       0 days  0 hours  0 minutes 16.2 seconds.
 File lengths (MBytes):  RWF=      5 Int=      0 D2E=      0 Chk=      1 Scr=      1
 Normal termination of Gaussian 09 at Tue Feb  6 11:27:46 2018.
